
     Program PWSCF v.7.3 starts on 22May2025 at 17:36:53 
        Git branch: HEAD
        Last git commit: 86535f777cf6580630c3ad900c934576e98012c6
        Last git commit date: Fri Dec 15 21:03:38 2023 +0000
        Last git commit subject: Merge branch 'develop' into 'master'

     This program is part of the open-source Quantum ESPRESSO suite
     for quantum simulation of materials; please cite
         "P. Giannozzi et al., J. Phys.:Condens. Matter 21 395502 (2009);
         "P. Giannozzi et al., J. Phys.:Condens. Matter 29 465901 (2017);
         "P. Giannozzi et al., J. Chem. Phys. 152 154105 (2020);
          URL http://www.quantum-espresso.org", 
     in publications or presentations arising from this work. More details at
     http://www.quantum-espresso.org/quote

     Parallel version (MPI), running on     4 processors

     MPI processes distributed on     1 nodes
     31992 MiB available memory on the printing compute node when the environment starts
 
     Waiting for input...
     Reading input from standard input

     Current dimensions of program PWSCF are:
     Max number of different atomic species (ntypx) = 10
     Max number of k-points (npk) =  40000
     Max angular momentum in pseudopotentials (lmaxx) =  4

     Atomic positions and unit cell read from directory:
     ./outputs/Ni.save/
 
     Message from routine setup:
     using ibrav=0 with symmetry is DISCOURAGED, use correct ibrav instead
 
     K-points division:     npool     =       4
     Subspace diagonalization in iterative solution of the eigenvalue problem:
     a serial algorithm will be used

 
     G-vector sticks info
     --------------------
     sticks:   dense  smooth     PW     G-vecs:    dense   smooth      PW
     Sum         479     479    161                 4933     4933    1007
 
     Using Slab Decomposition
 


     bravais-lattice index     =            0
     lattice parameter (alat)  =       9.3691  a.u.
     unit-cell volume          =     145.3870 (a.u.)^3
     number of atoms/cell      =            2
     number of atomic types    =            2
     number of electrons       =        36.00
     number of Kohn-Sham states=           18
     kinetic-energy cutoff     =      40.0000  Ry
     charge density cutoff     =     160.0000  Ry
     Exchange-correlation= SLA  PW   PSX  PSC
                           (   1   4  10   8   0   0   0)
     Hubbard projectors: ortho-atomic
     Hubbard parameters of DFT+U (Dudarev formulation) in eV:
     U(Ni-3d) =  4.0000
     U(Ni1-3d) =  4.0000

     Internal variables: lda_plus_u = T, lda_plus_u_kind = 0

     celldm(1)=   9.369149  celldm(2)=   0.000000  celldm(3)=   0.000000
     celldm(4)=   0.000000  celldm(5)=   0.000000  celldm(6)=   0.000000

     crystal axes: (cart. coord. in units of alat)
               a(1) = (   1.000000   0.000000   0.000000 )  
               a(2) = (   0.250000   0.433013   0.000000 )  
               a(3) = (   0.250000   0.144338   0.408248 )  

     reciprocal axes: (cart. coord. in units 2 pi/alat)
               b(1) = (  1.000000 -0.577350 -0.408248 )  
               b(2) = (  0.000000  2.309401 -0.816497 )  
               b(3) = (  0.000000  0.000000  2.449490 )  


     PseudoPot. # 1 for Ni read from file:
     ./Ni.UPF
     MD5 check sum: de937c0c8ae4b350e69c02b76d8a83cb
     Pseudo is Ultrasoft + core correction, Zval = 18.0
     Generated by new atomic code, or converted to UPF format
     Using radial grid of  865 points,  6 beta functions with: 
                l(1) =   0
                l(2) =   0
                l(3) =   1
                l(4) =   1
                l(5) =   2
                l(6) =   2
     Q(r) pseudized with 10 coefficients,  rinner =    0.980   0.980   0.980
                                                       0.980   0.980

     PseudoPot. # 2 for Ni read from file:
     ./Ni.UPF
     MD5 check sum: de937c0c8ae4b350e69c02b76d8a83cb
     Pseudo is Ultrasoft + core correction, Zval = 18.0
     Generated by new atomic code, or converted to UPF format
     Using radial grid of  865 points,  6 beta functions with: 
                l(1) =   0
                l(2) =   0
                l(3) =   1
                l(4) =   1
                l(5) =   2
                l(6) =   2
     Q(r) pseudized with 10 coefficients,  rinner =    0.980   0.980   0.980
                                                       0.980   0.980

     atomic species   valence    mass     pseudopotential
     Ni               18.00    58.69340     Ni( 1.00)
     Ni1              18.00    58.69340     Ni( 1.00)

     Starting magnetic structure 
     atomic species   magnetization
     Ni              0.100
     Ni1            -0.100

      4 Sym. Ops., with inversion, found


                                    s                        frac. trans.

      isym =  1     identity                                     

 cryst.   s( 1) = (     1          0          0      )
                  (     0          1          0      )
                  (     0          0          1      )

 cart.    s( 1) = (  1.0000000  0.0000000  0.0000000 )
                  (  0.0000000  1.0000000  0.0000000 )
                  (  0.0000000  0.0000000  1.0000000 )


      isym =  2     180 deg rotation - cryst. axis [1,1,0]       

 cryst.   s( 2) = (    -1          2          0      )
                  (     0          1          0      )
                  (     0          1         -1      )

 cart.    s( 2) = ( -0.5000000  0.8660254  0.0000000 )
                  (  0.8660254  0.5000000  0.0000000 )
                  (  0.0000000  0.0000000 -1.0000000 )


      isym =  3     inversion                                    

 cryst.   s( 3) = (    -1          0          0      )
                  (     0         -1          0      )
                  (     0          0         -1      )

 cart.    s( 3) = ( -1.0000000  0.0000000  0.0000000 )
                  (  0.0000000 -1.0000000  0.0000000 )
                  (  0.0000000  0.0000000 -1.0000000 )


      isym =  4     inv. 180 deg rotation - cryst. axis [1,1,0]  

 cryst.   s( 4) = (     1         -2          0      )
                  (     0         -1          0      )
                  (     0         -1          1      )

 cart.    s( 4) = (  0.5000000 -0.8660254 -0.0000000 )
                  ( -0.8660254 -0.5000000 -0.0000000 )
                  (  0.0000000  0.0000000  1.0000000 )


   Cartesian axes

     site n.     atom                  positions (alat units)
         1        Ni     tau(   1) = (   0.0000000   0.0000000   0.0000000  )
         2        Ni1    tau(   2) = (   0.5000000   0.0000000   0.0000000  )

   Crystallographic axes

     site n.     atom                  positions (cryst. coord.)
         1        Ni     tau(   1) = (  0.0000000  0.0000000  0.0000000  )
         2        Ni1    tau(   2) = (  0.5000000  0.0000000  0.0000000  )

     number of k points=   221  Gaussian smearing, width (Ry)=  0.0100
                       cart. coord. in units 2pi/alat
        k(    1) = (   0.0000000   0.0000000   0.0000000), wk =   0.0045249
        k(    2) = (   0.0250000  -0.0144338   0.0510310), wk =   0.0045249
        k(    3) = (   0.0500000  -0.0288675   0.1020621), wk =   0.0045249
        k(    4) = (   0.0750000  -0.0433013   0.1530931), wk =   0.0045249
        k(    5) = (   0.1000000  -0.0577350   0.2041241), wk =   0.0045249
        k(    6) = (   0.1250000  -0.0721688   0.2551552), wk =   0.0045249
        k(    7) = (   0.1500000  -0.0866025   0.3061862), wk =   0.0045249
        k(    8) = (   0.1750000  -0.1010363   0.3572173), wk =   0.0045249
        k(    9) = (   0.2000000  -0.1154701   0.4082483), wk =   0.0045249
        k(   10) = (   0.2250000  -0.1299038   0.4592793), wk =   0.0045249
        k(   11) = (   0.2500000  -0.1443376   0.5103104), wk =   0.0045249
        k(   12) = (   0.2750000  -0.1587713   0.5613414), wk =   0.0045249
        k(   13) = (   0.3000000  -0.1732051   0.6123724), wk =   0.0045249
        k(   14) = (   0.3250000  -0.1876388   0.6634035), wk =   0.0045249
        k(   15) = (   0.3500000  -0.2020726   0.7144345), wk =   0.0045249
        k(   16) = (   0.3750000  -0.2165064   0.7654655), wk =   0.0045249
        k(   17) = (   0.4000000  -0.2309401   0.8164966), wk =   0.0045249
        k(   18) = (   0.4250000  -0.2453739   0.8675276), wk =   0.0045249
        k(   19) = (   0.4500000  -0.2598076   0.9185587), wk =   0.0045249
        k(   20) = (   0.4750000  -0.2742414   0.9695897), wk =   0.0045249
        k(   21) = (   0.5000000  -0.2886751   1.0206207), wk =   0.0045249
        k(   22) = (   0.5000000  -0.2598076   1.0410331), wk =   0.0045249
        k(   23) = (   0.5000000  -0.2309401   1.0614456), wk =   0.0045249
        k(   24) = (   0.5000000  -0.2020726   1.0818580), wk =   0.0045249
        k(   25) = (   0.5000000  -0.1732051   1.1022704), wk =   0.0045249
        k(   26) = (   0.5000000  -0.1443376   1.1226828), wk =   0.0045249
        k(   27) = (   0.5000000  -0.1154701   1.1430952), wk =   0.0045249
        k(   28) = (   0.5000000  -0.0866025   1.1635076), wk =   0.0045249
        k(   29) = (   0.5000000  -0.0577350   1.1839200), wk =   0.0045249
        k(   30) = (   0.5000000  -0.0288675   1.2043325), wk =   0.0045249
        k(   31) = (   0.5000000   0.0000000   1.2247449), wk =   0.0045249
        k(   32) = (   0.5000000   0.0288675   1.2451573), wk =   0.0045249
        k(   33) = (   0.5000000   0.0577350   1.2655697), wk =   0.0045249
        k(   34) = (   0.5000000   0.0866025   1.2859821), wk =   0.0045249
        k(   35) = (   0.5000000   0.1154701   1.3063945), wk =   0.0045249
        k(   36) = (   0.5000000   0.1443376   1.3268069), wk =   0.0045249
        k(   37) = (   0.5000000   0.1732051   1.3472194), wk =   0.0045249
        k(   38) = (   0.5000000   0.2020726   1.3676318), wk =   0.0045249
        k(   39) = (   0.5000000   0.2309401   1.3880442), wk =   0.0045249
        k(   40) = (   0.5000000   0.2598076   1.4084566), wk =   0.0045249
        k(   41) = (   0.5000000   0.2886751   1.4288690), wk =   0.0045249
        k(   42) = (   0.4937500   0.3067173   1.4263175), wk =   0.0045249
        k(   43) = (   0.4875000   0.3247595   1.4237659), wk =   0.0045249
        k(   44) = (   0.4812500   0.3428017   1.4212144), wk =   0.0045249
        k(   45) = (   0.4750000   0.3608439   1.4186628), wk =   0.0045249
        k(   46) = (   0.4687500   0.3788861   1.4161113), wk =   0.0045249
        k(   47) = (   0.4625000   0.3969283   1.4135597), wk =   0.0045249
        k(   48) = (   0.4562500   0.4149705   1.4110082), wk =   0.0045249
        k(   49) = (   0.4500000   0.4330127   1.4084566), wk =   0.0045249
        k(   50) = (   0.4437500   0.4510549   1.4059051), wk =   0.0045249
        k(   51) = (   0.4375000   0.4690971   1.4033535), wk =   0.0045249
        k(   52) = (   0.4312500   0.4871393   1.4008019), wk =   0.0045249
        k(   53) = (   0.4250000   0.5051815   1.3982504), wk =   0.0045249
        k(   54) = (   0.4187500   0.5232237   1.3956988), wk =   0.0045249
        k(   55) = (   0.4125000   0.5412659   1.3931473), wk =   0.0045249
        k(   56) = (   0.4062500   0.5593081   1.3905957), wk =   0.0045249
        k(   57) = (   0.4000000   0.5773503   1.3880442), wk =   0.0045249
        k(   58) = (   0.3937500   0.5953925   1.3854926), wk =   0.0045249
        k(   59) = (   0.3875000   0.6134347   1.3829411), wk =   0.0045249
        k(   60) = (   0.3812500   0.6314769   1.3803895), wk =   0.0045249
        k(   61) = (   0.3750000   0.6495191   1.3778380), wk =   0.0045249
        k(   62) = (   0.3562500   0.6170431   1.3089461), wk =   0.0045249
        k(   63) = (   0.3375000   0.5845671   1.2400542), wk =   0.0045249
        k(   64) = (   0.3187500   0.5520912   1.1711623), wk =   0.0045249
        k(   65) = (   0.3000000   0.5196152   1.1022704), wk =   0.0045249
        k(   66) = (   0.2812500   0.4871393   1.0333785), wk =   0.0045249
        k(   67) = (   0.2625000   0.4546633   0.9644866), wk =   0.0045249
        k(   68) = (   0.2437500   0.4221874   0.8955947), wk =   0.0045249
        k(   69) = (   0.2250000   0.3897114   0.8267028), wk =   0.0045249
        k(   70) = (   0.2062500   0.3572355   0.7578109), wk =   0.0045249
        k(   71) = (   0.1875000   0.3247595   0.6889190), wk =   0.0045249
        k(   72) = (   0.1687500   0.2922836   0.6200271), wk =   0.0045249
        k(   73) = (   0.1500000   0.2598076   0.5511352), wk =   0.0045249
        k(   74) = (   0.1312500   0.2273317   0.4822433), wk =   0.0045249
        k(   75) = (   0.1125000   0.1948557   0.4133514), wk =   0.0045249
        k(   76) = (   0.0937500   0.1623798   0.3444595), wk =   0.0045249
        k(   77) = (   0.0750000   0.1299038   0.2755676), wk =   0.0045249
        k(   78) = (   0.0562500   0.0974279   0.2066757), wk =   0.0045249
        k(   79) = (   0.0375000   0.0649519   0.1377838), wk =   0.0045249
        k(   80) = (   0.0187500   0.0324760   0.0688919), wk =   0.0045249
        k(   81) = (   0.0000000   0.0000000   0.0000000), wk =   0.0045249
        k(   82) = (   0.0250000   0.0433013   0.0306186), wk =   0.0045249
        k(   83) = (   0.0500000   0.0866025   0.0612372), wk =   0.0045249
        k(   84) = (   0.0750000   0.1299038   0.0918559), wk =   0.0045249
        k(   85) = (   0.1000000   0.1732051   0.1224745), wk =   0.0045249
        k(   86) = (   0.1250000   0.2165064   0.1530931), wk =   0.0045249
        k(   87) = (   0.1500000   0.2598076   0.1837117), wk =   0.0045249
        k(   88) = (   0.1750000   0.3031089   0.2143304), wk =   0.0045249
        k(   89) = (   0.2000000   0.3464102   0.2449490), wk =   0.0045249
        k(   90) = (   0.2250000   0.3897114   0.2755676), wk =   0.0045249
        k(   91) = (   0.2500000   0.4330127   0.3061862), wk =   0.0045249
        k(   92) = (   0.2750000   0.4763140   0.3368048), wk =   0.0045249
        k(   93) = (   0.3000000   0.5196152   0.3674235), wk =   0.0045249
        k(   94) = (   0.3250000   0.5629165   0.3980421), wk =   0.0045249
        k(   95) = (   0.3500000   0.6062178   0.4286607), wk =   0.0045249
        k(   96) = (   0.3750000   0.6495191   0.4592793), wk =   0.0045249
        k(   97) = (   0.4000000   0.6928203   0.4898979), wk =   0.0045249
        k(   98) = (   0.4250000   0.7361216   0.5205166), wk =   0.0045249
        k(   99) = (   0.4500000   0.7794229   0.5511352), wk =   0.0045249
        k(  100) = (   0.4750000   0.8227241   0.5817538), wk =   0.0045249
        k(  101) = (   0.5000000   0.8660254   0.6123724), wk =   0.0045249
        k(  102) = (   0.5062500   0.8335495   0.6353364), wk =   0.0045249
        k(  103) = (   0.5125000   0.8010735   0.6583004), wk =   0.0045249
        k(  104) = (   0.5187500   0.7685975   0.6812643), wk =   0.0045249
        k(  105) = (   0.5250000   0.7361216   0.7042283), wk =   0.0045249
        k(  106) = (   0.5312500   0.7036456   0.7271923), wk =   0.0045249
        k(  107) = (   0.5375000   0.6711697   0.7501562), wk =   0.0045249
        k(  108) = (   0.5437500   0.6386937   0.7731202), wk =   0.0045249
        k(  109) = (   0.5500000   0.6062178   0.7960842), wk =   0.0045249
        k(  110) = (   0.5562500   0.5737418   0.8190481), wk =   0.0045249
        k(  111) = (   0.5625000   0.5412659   0.8420121), wk =   0.0045249
        k(  112) = (   0.5687500   0.5087899   0.8649761), wk =   0.0045249
        k(  113) = (   0.5750000   0.4763140   0.8879400), wk =   0.0045249
        k(  114) = (   0.5812500   0.4438380   0.9109040), wk =   0.0045249
        k(  115) = (   0.5875000   0.4113621   0.9338680), wk =   0.0045249
        k(  116) = (   0.5937500   0.3788861   0.9568319), wk =   0.0045249
        k(  117) = (   0.6000000   0.3464102   0.9797959), wk =   0.0045249
        k(  118) = (   0.6062500   0.3139342   1.0027599), wk =   0.0045249
        k(  119) = (   0.6125000   0.2814583   1.0257238), wk =   0.0045249
        k(  120) = (   0.6187500   0.2489823   1.0486878), wk =   0.0045249
        k(  121) = (   0.6250000   0.2165064   1.0716518), wk =   0.0045249
        k(  122) = (   0.6187500   0.2201148   1.0895126), wk =   0.0045249
        k(  123) = (   0.6125000   0.2237232   1.1073735), wk =   0.0045249
        k(  124) = (   0.6062500   0.2273317   1.1252344), wk =   0.0045249
        k(  125) = (   0.6000000   0.2309401   1.1430952), wk =   0.0045249
        k(  126) = (   0.5937500   0.2345485   1.1609561), wk =   0.0045249
        k(  127) = (   0.5875000   0.2381570   1.1788169), wk =   0.0045249
        k(  128) = (   0.5812500   0.2417654   1.1966778), wk =   0.0045249
        k(  129) = (   0.5750000   0.2453739   1.2145387), wk =   0.0045249
        k(  130) = (   0.5687500   0.2489823   1.2323995), wk =   0.0045249
        k(  131) = (   0.5625000   0.2525907   1.2502604), wk =   0.0045249
        k(  132) = (   0.5562500   0.2561992   1.2681213), wk =   0.0045249
        k(  133) = (   0.5500000   0.2598076   1.2859821), wk =   0.0045249
        k(  134) = (   0.5437500   0.2634161   1.3038430), wk =   0.0045249
        k(  135) = (   0.5375000   0.2670245   1.3217038), wk =   0.0045249
        k(  136) = (   0.5312500   0.2706329   1.3395647), wk =   0.0045249
        k(  137) = (   0.5250000   0.2742414   1.3574256), wk =   0.0045249
        k(  138) = (   0.5187500   0.2778498   1.3752864), wk =   0.0045249
        k(  139) = (   0.5125000   0.2814583   1.3931473), wk =   0.0045249
        k(  140) = (   0.5062500   0.2850667   1.4110082), wk =   0.0045249
        k(  141) = (   0.5000000   0.2886751   1.4288690), wk =   0.0045249
        k(  142) = (   0.5000000   0.3175426   1.3880442), wk =   0.0045249
        k(  143) = (   0.5000000   0.3464102   1.3472194), wk =   0.0045249
        k(  144) = (   0.5000000   0.3752777   1.3063945), wk =   0.0045249
        k(  145) = (   0.5000000   0.4041452   1.2655697), wk =   0.0045249
        k(  146) = (   0.5000000   0.4330127   1.2247449), wk =   0.0045249
        k(  147) = (   0.5000000   0.4618802   1.1839200), wk =   0.0045249
        k(  148) = (   0.5000000   0.4907477   1.1430952), wk =   0.0045249
        k(  149) = (   0.5000000   0.5196152   1.1022704), wk =   0.0045249
        k(  150) = (   0.5000000   0.5484828   1.0614456), wk =   0.0045249
        k(  151) = (   0.5000000   0.5773503   1.0206207), wk =   0.0045249
        k(  152) = (   0.5000000   0.6062178   0.9797959), wk =   0.0045249
        k(  153) = (   0.5000000   0.6350853   0.9389711), wk =   0.0045249
        k(  154) = (   0.5000000   0.6639528   0.8981462), wk =   0.0045249
        k(  155) = (   0.5000000   0.6928203   0.8573214), wk =   0.0045249
        k(  156) = (   0.5000000   0.7216878   0.8164966), wk =   0.0045249
        k(  157) = (   0.5000000   0.7505553   0.7756718), wk =   0.0045249
        k(  158) = (   0.5000000   0.7794229   0.7348469), wk =   0.0045249
        k(  159) = (   0.5000000   0.8082904   0.6940221), wk =   0.0045249
        k(  160) = (   0.5000000   0.8371579   0.6531973), wk =   0.0045249
        k(  161) = (   0.5000000   0.8660254   0.6123724), wk =   0.0045249
        k(  162) = (   0.4937500   0.8552001   0.6506457), wk =   0.0045249
        k(  163) = (   0.4875000   0.8443748   0.6889190), wk =   0.0045249
        k(  164) = (   0.4812500   0.8335495   0.7271923), wk =   0.0045249
        k(  165) = (   0.4750000   0.8227241   0.7654655), wk =   0.0045249
        k(  166) = (   0.4687500   0.8118988   0.8037388), wk =   0.0045249
        k(  167) = (   0.4625000   0.8010735   0.8420121), wk =   0.0045249
        k(  168) = (   0.4562500   0.7902482   0.8802854), wk =   0.0045249
        k(  169) = (   0.4500000   0.7794229   0.9185587), wk =   0.0045249
        k(  170) = (   0.4437500   0.7685975   0.9568319), wk =   0.0045249
        k(  171) = (   0.4375000   0.7577722   0.9951052), wk =   0.0045249
        k(  172) = (   0.4312500   0.7469469   1.0333785), wk =   0.0045249
        k(  173) = (   0.4250000   0.7361216   1.0716518), wk =   0.0045249
        k(  174) = (   0.4187500   0.7252963   1.1099250), wk =   0.0045249
        k(  175) = (   0.4125000   0.7144710   1.1481983), wk =   0.0045249
        k(  176) = (   0.4062500   0.7036456   1.1864716), wk =   0.0045249
        k(  177) = (   0.4000000   0.6928203   1.2247449), wk =   0.0045249
        k(  178) = (   0.3937500   0.6819950   1.2630181), wk =   0.0045249
        k(  179) = (   0.3875000   0.6711697   1.3012914), wk =   0.0045249
        k(  180) = (   0.3812500   0.6603444   1.3395647), wk =   0.0045249
        k(  181) = (   0.3750000   0.6495191   1.3778380), wk =   0.0045249
        k(  182) = (   0.3875000   0.6278684   1.3625287), wk =   0.0045249
        k(  183) = (   0.4000000   0.6062178   1.3472194), wk =   0.0045249
        k(  184) = (   0.4125000   0.5845671   1.3319100), wk =   0.0045249
        k(  185) = (   0.4250000   0.5629165   1.3166007), wk =   0.0045249
        k(  186) = (   0.4375000   0.5412659   1.3012914), wk =   0.0045249
        k(  187) = (   0.4500000   0.5196152   1.2859821), wk =   0.0045249
        k(  188) = (   0.4625000   0.4979646   1.2706728), wk =   0.0045249
        k(  189) = (   0.4750000   0.4763140   1.2553635), wk =   0.0045249
        k(  190) = (   0.4875000   0.4546633   1.2400542), wk =   0.0045249
        k(  191) = (   0.5000000   0.4330127   1.2247449), wk =   0.0045249
        k(  192) = (   0.5125000   0.4113621   1.2094356), wk =   0.0045249
        k(  193) = (   0.5250000   0.3897114   1.1941262), wk =   0.0045249
        k(  194) = (   0.5375000   0.3680608   1.1788169), wk =   0.0045249
        k(  195) = (   0.5500000   0.3464102   1.1635076), wk =   0.0045249
        k(  196) = (   0.5625000   0.3247595   1.1481983), wk =   0.0045249
        k(  197) = (   0.5750000   0.3031089   1.1328890), wk =   0.0045249
        k(  198) = (   0.5875000   0.2814583   1.1175797), wk =   0.0045249
        k(  199) = (   0.6000000   0.2598076   1.1022704), wk =   0.0045249
        k(  200) = (   0.6125000   0.2381570   1.0869611), wk =   0.0045249
        k(  201) = (   0.6250000   0.2165064   1.0716518), wk =   0.0045249
        k(  202) = (   0.6187500   0.1912473   1.0691002), wk =   0.0045249
        k(  203) = (   0.6125000   0.1659882   1.0665487), wk =   0.0045249
        k(  204) = (   0.6062500   0.1407291   1.0639971), wk =   0.0045249
        k(  205) = (   0.6000000   0.1154701   1.0614456), wk =   0.0045249
        k(  206) = (   0.5937500   0.0902110   1.0588940), wk =   0.0045249
        k(  207) = (   0.5875000   0.0649519   1.0563425), wk =   0.0045249
        k(  208) = (   0.5812500   0.0396928   1.0537909), wk =   0.0045249
        k(  209) = (   0.5750000   0.0144338   1.0512393), wk =   0.0045249
        k(  210) = (   0.5687500  -0.0108253   1.0486878), wk =   0.0045249
        k(  211) = (   0.5625000  -0.0360844   1.0461362), wk =   0.0045249
        k(  212) = (   0.5562500  -0.0613435   1.0435847), wk =   0.0045249
        k(  213) = (   0.5500000  -0.0866025   1.0410331), wk =   0.0045249
        k(  214) = (   0.5437500  -0.1118616   1.0384816), wk =   0.0045249
        k(  215) = (   0.5375000  -0.1371207   1.0359300), wk =   0.0045249
        k(  216) = (   0.5312500  -0.1623798   1.0333785), wk =   0.0045249
        k(  217) = (   0.5250000  -0.1876388   1.0308269), wk =   0.0045249
        k(  218) = (   0.5187500  -0.2128979   1.0282754), wk =   0.0045249
        k(  219) = (   0.5125000  -0.2381570   1.0257238), wk =   0.0045249
        k(  220) = (   0.5062500  -0.2634161   1.0231723), wk =   0.0045249
        k(  221) = (   0.5000000  -0.2886751   1.0206207), wk =   0.0045249

                       cryst. coord.
        k(    1) = (   0.0000000   0.0000000   0.0000000), wk =   0.0045249
        k(    2) = (   0.0250000   0.0000000   0.0250000), wk =   0.0045249
        k(    3) = (   0.0500000   0.0000000   0.0500000), wk =   0.0045249
        k(    4) = (   0.0750000   0.0000000   0.0750000), wk =   0.0045249
        k(    5) = (   0.1000000   0.0000000   0.1000000), wk =   0.0045249
        k(    6) = (   0.1250000   0.0000000   0.1250000), wk =   0.0045249
        k(    7) = (   0.1500000   0.0000000   0.1500000), wk =   0.0045249
        k(    8) = (   0.1750000   0.0000000   0.1750000), wk =   0.0045249
        k(    9) = (   0.2000000   0.0000000   0.2000000), wk =   0.0045249
        k(   10) = (   0.2250000   0.0000000   0.2250000), wk =   0.0045249
        k(   11) = (   0.2500000   0.0000000   0.2500000), wk =   0.0045249
        k(   12) = (   0.2750000   0.0000000   0.2750000), wk =   0.0045249
        k(   13) = (   0.3000000   0.0000000   0.3000000), wk =   0.0045249
        k(   14) = (   0.3250000   0.0000000   0.3250000), wk =   0.0045249
        k(   15) = (   0.3500000   0.0000000   0.3500000), wk =   0.0045249
        k(   16) = (   0.3750000   0.0000000   0.3750000), wk =   0.0045249
        k(   17) = (   0.4000000   0.0000000   0.4000000), wk =   0.0045249
        k(   18) = (   0.4250000   0.0000000   0.4250000), wk =   0.0045249
        k(   19) = (   0.4500000   0.0000000   0.4500000), wk =   0.0045249
        k(   20) = (   0.4750000   0.0000000   0.4750000), wk =   0.0045249
        k(   21) = (   0.5000000   0.0000000   0.5000000), wk =   0.0045249
        k(   22) = (   0.5000000   0.0125000   0.5125000), wk =   0.0045249
        k(   23) = (   0.5000000   0.0250000   0.5250000), wk =   0.0045249
        k(   24) = (   0.5000000   0.0375000   0.5375000), wk =   0.0045249
        k(   25) = (   0.5000000   0.0500000   0.5500000), wk =   0.0045249
        k(   26) = (   0.5000000   0.0625000   0.5625000), wk =   0.0045249
        k(   27) = (   0.5000000   0.0750000   0.5750000), wk =   0.0045249
        k(   28) = (   0.5000000   0.0875000   0.5875000), wk =   0.0045249
        k(   29) = (   0.5000000   0.1000000   0.6000000), wk =   0.0045249
        k(   30) = (   0.5000000   0.1125000   0.6125000), wk =   0.0045249
        k(   31) = (   0.5000000   0.1250000   0.6250000), wk =   0.0045249
        k(   32) = (   0.5000000   0.1375000   0.6375000), wk =   0.0045249
        k(   33) = (   0.5000000   0.1500000   0.6500000), wk =   0.0045249
        k(   34) = (   0.5000000   0.1625000   0.6625000), wk =   0.0045249
        k(   35) = (   0.5000000   0.1750000   0.6750000), wk =   0.0045249
        k(   36) = (   0.5000000   0.1875000   0.6875000), wk =   0.0045249
        k(   37) = (   0.5000000   0.2000000   0.7000000), wk =   0.0045249
        k(   38) = (   0.5000000   0.2125000   0.7125000), wk =   0.0045249
        k(   39) = (   0.5000000   0.2250000   0.7250000), wk =   0.0045249
        k(   40) = (   0.5000000   0.2375000   0.7375000), wk =   0.0045249
        k(   41) = (   0.5000000   0.2500000   0.7500000), wk =   0.0045249
        k(   42) = (   0.4937500   0.2562500   0.7500000), wk =   0.0045249
        k(   43) = (   0.4875000   0.2625000   0.7500000), wk =   0.0045249
        k(   44) = (   0.4812500   0.2687500   0.7500000), wk =   0.0045249
        k(   45) = (   0.4750000   0.2750000   0.7500000), wk =   0.0045249
        k(   46) = (   0.4687500   0.2812500   0.7500000), wk =   0.0045249
        k(   47) = (   0.4625000   0.2875000   0.7500000), wk =   0.0045249
        k(   48) = (   0.4562500   0.2937500   0.7500000), wk =   0.0045249
        k(   49) = (   0.4500000   0.3000000   0.7500000), wk =   0.0045249
        k(   50) = (   0.4437500   0.3062500   0.7500000), wk =   0.0045249
        k(   51) = (   0.4375000   0.3125000   0.7500000), wk =   0.0045249
        k(   52) = (   0.4312500   0.3187500   0.7500000), wk =   0.0045249
        k(   53) = (   0.4250000   0.3250000   0.7500000), wk =   0.0045249
        k(   54) = (   0.4187500   0.3312500   0.7500000), wk =   0.0045249
        k(   55) = (   0.4125000   0.3375000   0.7500000), wk =   0.0045249
        k(   56) = (   0.4062500   0.3437500   0.7500000), wk =   0.0045249
        k(   57) = (   0.4000000   0.3500000   0.7500000), wk =   0.0045249
        k(   58) = (   0.3937500   0.3562500   0.7500000), wk =   0.0045249
        k(   59) = (   0.3875000   0.3625000   0.7500000), wk =   0.0045249
        k(   60) = (   0.3812500   0.3687500   0.7500000), wk =   0.0045249
        k(   61) = (   0.3750000   0.3750000   0.7500000), wk =   0.0045249
        k(   62) = (   0.3562500   0.3562500   0.7125000), wk =   0.0045249
        k(   63) = (   0.3375000   0.3375000   0.6750000), wk =   0.0045249
        k(   64) = (   0.3187500   0.3187500   0.6375000), wk =   0.0045249
        k(   65) = (   0.3000000   0.3000000   0.6000000), wk =   0.0045249
        k(   66) = (   0.2812500   0.2812500   0.5625000), wk =   0.0045249
        k(   67) = (   0.2625000   0.2625000   0.5250000), wk =   0.0045249
        k(   68) = (   0.2437500   0.2437500   0.4875000), wk =   0.0045249
        k(   69) = (   0.2250000   0.2250000   0.4500000), wk =   0.0045249
        k(   70) = (   0.2062500   0.2062500   0.4125000), wk =   0.0045249
        k(   71) = (   0.1875000   0.1875000   0.3750000), wk =   0.0045249
        k(   72) = (   0.1687500   0.1687500   0.3375000), wk =   0.0045249
        k(   73) = (   0.1500000   0.1500000   0.3000000), wk =   0.0045249
        k(   74) = (   0.1312500   0.1312500   0.2625000), wk =   0.0045249
        k(   75) = (   0.1125000   0.1125000   0.2250000), wk =   0.0045249
        k(   76) = (   0.0937500   0.0937500   0.1875000), wk =   0.0045249
        k(   77) = (   0.0750000   0.0750000   0.1500000), wk =   0.0045249
        k(   78) = (   0.0562500   0.0562500   0.1125000), wk =   0.0045249
        k(   79) = (   0.0375000   0.0375000   0.0750000), wk =   0.0045249
        k(   80) = (   0.0187500   0.0187500   0.0375000), wk =   0.0045249
        k(   81) = (   0.0000000   0.0000000   0.0000000), wk =   0.0045249
        k(   82) = (   0.0250000   0.0250000   0.0250000), wk =   0.0045249
        k(   83) = (   0.0500000   0.0500000   0.0500000), wk =   0.0045249
        k(   84) = (   0.0750000   0.0750000   0.0750000), wk =   0.0045249
        k(   85) = (   0.1000000   0.1000000   0.1000000), wk =   0.0045249
        k(   86) = (   0.1250000   0.1250000   0.1250000), wk =   0.0045249
        k(   87) = (   0.1500000   0.1500000   0.1500000), wk =   0.0045249
        k(   88) = (   0.1750000   0.1750000   0.1750000), wk =   0.0045249
        k(   89) = (   0.2000000   0.2000000   0.2000000), wk =   0.0045249
        k(   90) = (   0.2250000   0.2250000   0.2250000), wk =   0.0045249
        k(   91) = (   0.2500000   0.2500000   0.2500000), wk =   0.0045249
        k(   92) = (   0.2750000   0.2750000   0.2750000), wk =   0.0045249
        k(   93) = (   0.3000000   0.3000000   0.3000000), wk =   0.0045249
        k(   94) = (   0.3250000   0.3250000   0.3250000), wk =   0.0045249
        k(   95) = (   0.3500000   0.3500000   0.3500000), wk =   0.0045249
        k(   96) = (   0.3750000   0.3750000   0.3750000), wk =   0.0045249
        k(   97) = (   0.4000000   0.4000000   0.4000000), wk =   0.0045249
        k(   98) = (   0.4250000   0.4250000   0.4250000), wk =   0.0045249
        k(   99) = (   0.4500000   0.4500000   0.4500000), wk =   0.0045249
        k(  100) = (   0.4750000   0.4750000   0.4750000), wk =   0.0045249
        k(  101) = (   0.5000000   0.5000000   0.5000000), wk =   0.0045249
        k(  102) = (   0.5062500   0.4875000   0.5062500), wk =   0.0045249
        k(  103) = (   0.5125000   0.4750000   0.5125000), wk =   0.0045249
        k(  104) = (   0.5187500   0.4625000   0.5187500), wk =   0.0045249
        k(  105) = (   0.5250000   0.4500000   0.5250000), wk =   0.0045249
        k(  106) = (   0.5312500   0.4375000   0.5312500), wk =   0.0045249
        k(  107) = (   0.5375000   0.4250000   0.5375000), wk =   0.0045249
        k(  108) = (   0.5437500   0.4125000   0.5437500), wk =   0.0045249
        k(  109) = (   0.5500000   0.4000000   0.5500000), wk =   0.0045249
        k(  110) = (   0.5562500   0.3875000   0.5562500), wk =   0.0045249
        k(  111) = (   0.5625000   0.3750000   0.5625000), wk =   0.0045249
        k(  112) = (   0.5687500   0.3625000   0.5687500), wk =   0.0045249
        k(  113) = (   0.5750000   0.3500000   0.5750000), wk =   0.0045249
        k(  114) = (   0.5812500   0.3375000   0.5812500), wk =   0.0045249
        k(  115) = (   0.5875000   0.3250000   0.5875000), wk =   0.0045249
        k(  116) = (   0.5937500   0.3125000   0.5937500), wk =   0.0045249
        k(  117) = (   0.6000000   0.3000000   0.6000000), wk =   0.0045249
        k(  118) = (   0.6062500   0.2875000   0.6062500), wk =   0.0045249
        k(  119) = (   0.6125000   0.2750000   0.6125000), wk =   0.0045249
        k(  120) = (   0.6187500   0.2625000   0.6187500), wk =   0.0045249
        k(  121) = (   0.6250000   0.2500000   0.6250000), wk =   0.0045249
        k(  122) = (   0.6187500   0.2500000   0.6312500), wk =   0.0045249
        k(  123) = (   0.6125000   0.2500000   0.6375000), wk =   0.0045249
        k(  124) = (   0.6062500   0.2500000   0.6437500), wk =   0.0045249
        k(  125) = (   0.6000000   0.2500000   0.6500000), wk =   0.0045249
        k(  126) = (   0.5937500   0.2500000   0.6562500), wk =   0.0045249
        k(  127) = (   0.5875000   0.2500000   0.6625000), wk =   0.0045249
        k(  128) = (   0.5812500   0.2500000   0.6687500), wk =   0.0045249
        k(  129) = (   0.5750000   0.2500000   0.6750000), wk =   0.0045249
        k(  130) = (   0.5687500   0.2500000   0.6812500), wk =   0.0045249
        k(  131) = (   0.5625000   0.2500000   0.6875000), wk =   0.0045249
        k(  132) = (   0.5562500   0.2500000   0.6937500), wk =   0.0045249
        k(  133) = (   0.5500000   0.2500000   0.7000000), wk =   0.0045249
        k(  134) = (   0.5437500   0.2500000   0.7062500), wk =   0.0045249
        k(  135) = (   0.5375000   0.2500000   0.7125000), wk =   0.0045249
        k(  136) = (   0.5312500   0.2500000   0.7187500), wk =   0.0045249
        k(  137) = (   0.5250000   0.2500000   0.7250000), wk =   0.0045249
        k(  138) = (   0.5187500   0.2500000   0.7312500), wk =   0.0045249
        k(  139) = (   0.5125000   0.2500000   0.7375000), wk =   0.0045249
        k(  140) = (   0.5062500   0.2500000   0.7437500), wk =   0.0045249
        k(  141) = (   0.5000000   0.2500000   0.7500000), wk =   0.0045249
        k(  142) = (   0.5000000   0.2625000   0.7375000), wk =   0.0045249
        k(  143) = (   0.5000000   0.2750000   0.7250000), wk =   0.0045249
        k(  144) = (   0.5000000   0.2875000   0.7125000), wk =   0.0045249
        k(  145) = (   0.5000000   0.3000000   0.7000000), wk =   0.0045249
        k(  146) = (   0.5000000   0.3125000   0.6875000), wk =   0.0045249
        k(  147) = (   0.5000000   0.3250000   0.6750000), wk =   0.0045249
        k(  148) = (   0.5000000   0.3375000   0.6625000), wk =   0.0045249
        k(  149) = (   0.5000000   0.3500000   0.6500000), wk =   0.0045249
        k(  150) = (   0.5000000   0.3625000   0.6375000), wk =   0.0045249
        k(  151) = (   0.5000000   0.3750000   0.6250000), wk =   0.0045249
        k(  152) = (   0.5000000   0.3875000   0.6125000), wk =   0.0045249
        k(  153) = (   0.5000000   0.4000000   0.6000000), wk =   0.0045249
        k(  154) = (   0.5000000   0.4125000   0.5875000), wk =   0.0045249
        k(  155) = (   0.5000000   0.4250000   0.5750000), wk =   0.0045249
        k(  156) = (   0.5000000   0.4375000   0.5625000), wk =   0.0045249
        k(  157) = (   0.5000000   0.4500000   0.5500000), wk =   0.0045249
        k(  158) = (   0.5000000   0.4625000   0.5375000), wk =   0.0045249
        k(  159) = (   0.5000000   0.4750000   0.5250000), wk =   0.0045249
        k(  160) = (   0.5000000   0.4875000   0.5125000), wk =   0.0045249
        k(  161) = (   0.5000000   0.5000000   0.5000000), wk =   0.0045249
        k(  162) = (   0.4937500   0.4937500   0.5125000), wk =   0.0045249
        k(  163) = (   0.4875000   0.4875000   0.5250000), wk =   0.0045249
        k(  164) = (   0.4812500   0.4812500   0.5375000), wk =   0.0045249
        k(  165) = (   0.4750000   0.4750000   0.5500000), wk =   0.0045249
        k(  166) = (   0.4687500   0.4687500   0.5625000), wk =   0.0045249
        k(  167) = (   0.4625000   0.4625000   0.5750000), wk =   0.0045249
        k(  168) = (   0.4562500   0.4562500   0.5875000), wk =   0.0045249
        k(  169) = (   0.4500000   0.4500000   0.6000000), wk =   0.0045249
        k(  170) = (   0.4437500   0.4437500   0.6125000), wk =   0.0045249
        k(  171) = (   0.4375000   0.4375000   0.6250000), wk =   0.0045249
        k(  172) = (   0.4312500   0.4312500   0.6375000), wk =   0.0045249
        k(  173) = (   0.4250000   0.4250000   0.6500000), wk =   0.0045249
        k(  174) = (   0.4187500   0.4187500   0.6625000), wk =   0.0045249
        k(  175) = (   0.4125000   0.4125000   0.6750000), wk =   0.0045249
        k(  176) = (   0.4062500   0.4062500   0.6875000), wk =   0.0045249
        k(  177) = (   0.4000000   0.4000000   0.7000000), wk =   0.0045249
        k(  178) = (   0.3937500   0.3937500   0.7125000), wk =   0.0045249
        k(  179) = (   0.3875000   0.3875000   0.7250000), wk =   0.0045249
        k(  180) = (   0.3812500   0.3812500   0.7375000), wk =   0.0045249
        k(  181) = (   0.3750000   0.3750000   0.7500000), wk =   0.0045249
        k(  182) = (   0.3875000   0.3687500   0.7437500), wk =   0.0045249
        k(  183) = (   0.4000000   0.3625000   0.7375000), wk =   0.0045249
        k(  184) = (   0.4125000   0.3562500   0.7312500), wk =   0.0045249
        k(  185) = (   0.4250000   0.3500000   0.7250000), wk =   0.0045249
        k(  186) = (   0.4375000   0.3437500   0.7187500), wk =   0.0045249
        k(  187) = (   0.4500000   0.3375000   0.7125000), wk =   0.0045249
        k(  188) = (   0.4625000   0.3312500   0.7062500), wk =   0.0045249
        k(  189) = (   0.4750000   0.3250000   0.7000000), wk =   0.0045249
        k(  190) = (   0.4875000   0.3187500   0.6937500), wk =   0.0045249
        k(  191) = (   0.5000000   0.3125000   0.6875000), wk =   0.0045249
        k(  192) = (   0.5125000   0.3062500   0.6812500), wk =   0.0045249
        k(  193) = (   0.5250000   0.3000000   0.6750000), wk =   0.0045249
        k(  194) = (   0.5375000   0.2937500   0.6687500), wk =   0.0045249
        k(  195) = (   0.5500000   0.2875000   0.6625000), wk =   0.0045249
        k(  196) = (   0.5625000   0.2812500   0.6562500), wk =   0.0045249
        k(  197) = (   0.5750000   0.2750000   0.6500000), wk =   0.0045249
        k(  198) = (   0.5875000   0.2687500   0.6437500), wk =   0.0045249
        k(  199) = (   0.6000000   0.2625000   0.6375000), wk =   0.0045249
        k(  200) = (   0.6125000   0.2562500   0.6312500), wk =   0.0045249
        k(  201) = (   0.6250000   0.2500000   0.6250000), wk =   0.0045249
        k(  202) = (   0.6187500   0.2375000   0.6187500), wk =   0.0045249
        k(  203) = (   0.6125000   0.2250000   0.6125000), wk =   0.0045249
        k(  204) = (   0.6062500   0.2125000   0.6062500), wk =   0.0045249
        k(  205) = (   0.6000000   0.2000000   0.6000000), wk =   0.0045249
        k(  206) = (   0.5937500   0.1875000   0.5937500), wk =   0.0045249
        k(  207) = (   0.5875000   0.1750000   0.5875000), wk =   0.0045249
        k(  208) = (   0.5812500   0.1625000   0.5812500), wk =   0.0045249
        k(  209) = (   0.5750000   0.1500000   0.5750000), wk =   0.0045249
        k(  210) = (   0.5687500   0.1375000   0.5687500), wk =   0.0045249
        k(  211) = (   0.5625000   0.1250000   0.5625000), wk =   0.0045249
        k(  212) = (   0.5562500   0.1125000   0.5562500), wk =   0.0045249
        k(  213) = (   0.5500000   0.1000000   0.5500000), wk =   0.0045249
        k(  214) = (   0.5437500   0.0875000   0.5437500), wk =   0.0045249
        k(  215) = (   0.5375000   0.0750000   0.5375000), wk =   0.0045249
        k(  216) = (   0.5312500   0.0625000   0.5312500), wk =   0.0045249
        k(  217) = (   0.5250000   0.0500000   0.5250000), wk =   0.0045249
        k(  218) = (   0.5187500   0.0375000   0.5187500), wk =   0.0045249
        k(  219) = (   0.5125000   0.0250000   0.5125000), wk =   0.0045249
        k(  220) = (   0.5062500   0.0125000   0.5062500), wk =   0.0045249
        k(  221) = (   0.5000000   0.0000000   0.5000000), wk =   0.0045249

     Dense  grid:     4933 G-vectors     FFT dimensions: (  40,  20,  20)

     Dynamical RAM for                 wfc:       0.17 MB

     Dynamical RAM for     wfc (w. buffer):       0.17 MB

     Dynamical RAM for             U proj.:       0.09 MB

     Dynamical RAM for  U proj. (w. buff.):       0.09 MB

     Dynamical RAM for           str. fact:       0.15 MB

     Dynamical RAM for           local pot:       0.00 MB

     Dynamical RAM for          nlocal pot:       0.34 MB

     Dynamical RAM for                qrad:       2.03 MB

     Dynamical RAM for          rho,v,vnew:       1.18 MB

     Dynamical RAM for           G-vectors:       0.32 MB

     Dynamical RAM for          h,s,v(r/c):       0.06 MB

     Dynamical RAM for          <psi|beta>:       0.01 MB

     Dynamical RAM for                 psi:       0.34 MB

     Dynamical RAM for                hpsi:       0.34 MB

     Dynamical RAM for                spsi:       0.34 MB

     Dynamical RAM for      wfcinit/wfcrot:       0.51 MB

     Dynamical RAM for           addusdens:       3.65 MB

     Estimated static dynamical RAM per process >       5.25 MB

     Estimated max dynamical RAM per process >       8.90 MB

     Estimated total dynamical RAM >      35.60 MB

     Check: negative core charge=   -0.000112
     Generating pointlists ...
     new r_m :   0.2063 (alat units)  1.9324 (a.u.) for type    1
     new r_m :   0.2063 (alat units)  1.9324 (a.u.) for type    2

     The potential is recalculated from file :
     ./outputs/Ni.save/charge-density


     HUBBARD ENERGY =    0.2876  (Ry)

     STARTING HUBBARD OCCUPATIONS:

     =================== HUBBARD OCCUPATIONS ===================
     ------------------------ ATOM    1 ------------------------
     Tr[ns(  1)] (up, down, total) =   4.72764  3.75435  8.48199
     Atomic magnetic moment for atom   1 =   0.97329
     SPIN  1
     eigenvalues:
       0.932  0.941  0.942  0.957  0.957
     eigenvectors (columns):
      -0.323  0.000  0.848  0.420  0.000
       0.488  0.074  0.458 -0.550 -0.495
      -0.282  0.128 -0.264  0.317 -0.857
       0.380 -0.857 -0.016  0.324 -0.128
      -0.659 -0.495  0.028 -0.562 -0.074
     occupation matrix ns (before diag.):
       0.943 -0.002  0.001  0.003 -0.006
      -0.002  0.947  0.005 -0.004  0.008
       0.001  0.005  0.953  0.004 -0.004
       0.003 -0.004  0.004  0.942 -0.000
      -0.006  0.008 -0.004 -0.000  0.942
     SPIN  2
     eigenvalues:
       0.489  0.506  0.910  0.924  0.925
     eigenvectors (columns):
       0.921 -0.000  0.346  0.000 -0.181
       0.321  0.184 -0.546  0.465  0.590
      -0.185  0.318  0.315  0.805 -0.341
       0.061 -0.805 -0.347  0.318 -0.355
      -0.106 -0.465  0.601  0.184  0.614
     occupation matrix ns (before diag.):
       0.554 -0.126  0.073 -0.023  0.039
      -0.126  0.861  0.004  0.051  0.055
       0.073  0.004  0.865  0.114  0.051
      -0.023  0.051  0.114  0.650 -0.151
       0.039  0.055  0.051 -0.151  0.824
     ------------------------ ATOM    2 ------------------------
     Tr[ns(  2)] (up, down, total) =   3.75427  4.72762  8.48190
     Atomic magnetic moment for atom   2 =  -0.97335
     SPIN  1
     eigenvalues:
       0.489  0.506  0.910  0.924  0.925
     eigenvectors (columns):
       0.921 -0.000  0.346  0.000 -0.180
       0.321  0.184 -0.546  0.465  0.590
      -0.185  0.319  0.316  0.805 -0.341
       0.061 -0.805 -0.347  0.319 -0.355
      -0.106 -0.465  0.601  0.184  0.614
     occupation matrix ns (before diag.):
       0.554 -0.126  0.073 -0.023  0.039
      -0.126  0.861  0.003  0.051  0.055
       0.073  0.003  0.865  0.114  0.051
      -0.023  0.051  0.114  0.650 -0.151
       0.039  0.055  0.051 -0.151  0.824
     SPIN  2
     eigenvalues:
       0.932  0.941  0.942  0.957  0.957
     eigenvectors (columns):
      -0.322  0.000  0.848 -0.420 -0.000
       0.488  0.073  0.458  0.549  0.495
      -0.282  0.127 -0.264 -0.317  0.857
       0.380 -0.857 -0.016 -0.324  0.127
      -0.658 -0.495  0.028  0.562  0.073
     occupation matrix ns (before diag.):
       0.943 -0.002  0.001  0.003 -0.006
      -0.002  0.947  0.005 -0.004  0.008
       0.001  0.005  0.953  0.004 -0.004
       0.003 -0.004  0.004  0.941 -0.000
      -0.006  0.008 -0.004 -0.000  0.942

     Number of occupied Hubbard levels =   16.9639

     Atomic wfc used for Hubbard projectors are orthogonalized

     Starting wfcs are   26 randomized atomic wfcs

     Band Structure Calculation
     Davidson diagonalization with overlap

     Computing kpt #:     1  of   111 on this pool
     total cpu time spent up to now is        0.5 secs

     Computing kpt #:     2  of   111 on this pool
     total cpu time spent up to now is        0.6 secs

     Computing kpt #:     3  of   111 on this pool
     total cpu time spent up to now is        0.6 secs

     Computing kpt #:     4  of   111 on this pool
     total cpu time spent up to now is        0.7 secs

     Computing kpt #:     5  of   111 on this pool
     total cpu time spent up to now is        0.7 secs

     Computing kpt #:     6  of   111 on this pool
     total cpu time spent up to now is        0.7 secs

     Computing kpt #:     7  of   111 on this pool
     total cpu time spent up to now is        0.8 secs

     Computing kpt #:     8  of   111 on this pool
     total cpu time spent up to now is        0.8 secs

     Computing kpt #:     9  of   111 on this pool
     total cpu time spent up to now is        0.9 secs

     Computing kpt #:    10  of   111 on this pool
     total cpu time spent up to now is        0.9 secs

     Computing kpt #:    11  of   111 on this pool
     total cpu time spent up to now is        1.0 secs

     Computing kpt #:    12  of   111 on this pool
     total cpu time spent up to now is        1.0 secs

     Computing kpt #:    13  of   111 on this pool
     total cpu time spent up to now is        1.0 secs

     Computing kpt #:    14  of   111 on this pool
     total cpu time spent up to now is        1.1 secs

     Computing kpt #:    15  of   111 on this pool
     total cpu time spent up to now is        1.1 secs

     Computing kpt #:    16  of   111 on this pool
     total cpu time spent up to now is        1.2 secs

     Computing kpt #:    17  of   111 on this pool
     total cpu time spent up to now is        1.2 secs

     Computing kpt #:    18  of   111 on this pool
     total cpu time spent up to now is        1.3 secs

     Computing kpt #:    19  of   111 on this pool
     total cpu time spent up to now is        1.3 secs

     Computing kpt #:    20  of   111 on this pool
     total cpu time spent up to now is        1.3 secs

     Computing kpt #:    21  of   111 on this pool
     total cpu time spent up to now is        1.4 secs

     Computing kpt #:    22  of   111 on this pool
     total cpu time spent up to now is        1.4 secs

     Computing kpt #:    23  of   111 on this pool
     total cpu time spent up to now is        1.4 secs

     Computing kpt #:    24  of   111 on this pool
     total cpu time spent up to now is        1.5 secs

     Computing kpt #:    25  of   111 on this pool
     total cpu time spent up to now is        1.5 secs

     Computing kpt #:    26  of   111 on this pool
     total cpu time spent up to now is        1.6 secs

     Computing kpt #:    27  of   111 on this pool
     total cpu time spent up to now is        1.6 secs

     Computing kpt #:    28  of   111 on this pool
     total cpu time spent up to now is        1.6 secs

     Computing kpt #:    29  of   111 on this pool
     total cpu time spent up to now is        1.7 secs

     Computing kpt #:    30  of   111 on this pool
     total cpu time spent up to now is        1.7 secs

     Computing kpt #:    31  of   111 on this pool
     total cpu time spent up to now is        1.7 secs

     Computing kpt #:    32  of   111 on this pool
     total cpu time spent up to now is        1.8 secs

     Computing kpt #:    33  of   111 on this pool
     total cpu time spent up to now is        1.8 secs

     Computing kpt #:    34  of   111 on this pool
     total cpu time spent up to now is        1.9 secs

     Computing kpt #:    35  of   111 on this pool
     total cpu time spent up to now is        1.9 secs

     Computing kpt #:    36  of   111 on this pool
     total cpu time spent up to now is        1.9 secs

     Computing kpt #:    37  of   111 on this pool
     total cpu time spent up to now is        2.0 secs

     Computing kpt #:    38  of   111 on this pool
     total cpu time spent up to now is        2.0 secs

     Computing kpt #:    39  of   111 on this pool
     total cpu time spent up to now is        2.0 secs

     Computing kpt #:    40  of   111 on this pool
     total cpu time spent up to now is        2.1 secs

     Computing kpt #:    41  of   111 on this pool
     total cpu time spent up to now is        2.1 secs

     Computing kpt #:    42  of   111 on this pool
     total cpu time spent up to now is        2.1 secs

     Computing kpt #:    43  of   111 on this pool
     total cpu time spent up to now is        2.2 secs

     Computing kpt #:    44  of   111 on this pool
     total cpu time spent up to now is        2.2 secs

     Computing kpt #:    45  of   111 on this pool
     total cpu time spent up to now is        2.3 secs

     Computing kpt #:    46  of   111 on this pool
     total cpu time spent up to now is        2.3 secs

     Computing kpt #:    47  of   111 on this pool
     total cpu time spent up to now is        2.3 secs

     Computing kpt #:    48  of   111 on this pool
     total cpu time spent up to now is        2.4 secs

     Computing kpt #:    49  of   111 on this pool
     total cpu time spent up to now is        2.4 secs

     Computing kpt #:    50  of   111 on this pool
     total cpu time spent up to now is        2.4 secs

     Computing kpt #:    51  of   111 on this pool
     total cpu time spent up to now is        2.5 secs

     Computing kpt #:    52  of   111 on this pool
     total cpu time spent up to now is        2.5 secs

     Computing kpt #:    53  of   111 on this pool
     total cpu time spent up to now is        2.5 secs

     Computing kpt #:    54  of   111 on this pool
     total cpu time spent up to now is        2.6 secs

     Computing kpt #:    55  of   111 on this pool
     total cpu time spent up to now is        2.6 secs

     Computing kpt #:    56  of   111 on this pool
     total cpu time spent up to now is        2.6 secs

     Computing kpt #:    57  of   111 on this pool
     total cpu time spent up to now is        2.7 secs

     Computing kpt #:    58  of   111 on this pool
     total cpu time spent up to now is        2.7 secs

     Computing kpt #:    59  of   111 on this pool
     total cpu time spent up to now is        2.7 secs

     Computing kpt #:    60  of   111 on this pool
     total cpu time spent up to now is        2.8 secs

     Computing kpt #:    61  of   111 on this pool
     total cpu time spent up to now is        2.8 secs

     Computing kpt #:    62  of   111 on this pool
     total cpu time spent up to now is        2.8 secs

     Computing kpt #:    63  of   111 on this pool
     total cpu time spent up to now is        2.9 secs

     Computing kpt #:    64  of   111 on this pool
     total cpu time spent up to now is        2.9 secs

     Computing kpt #:    65  of   111 on this pool
     total cpu time spent up to now is        2.9 secs

     Computing kpt #:    66  of   111 on this pool
     total cpu time spent up to now is        3.0 secs

     Computing kpt #:    67  of   111 on this pool
     total cpu time spent up to now is        3.0 secs

     Computing kpt #:    68  of   111 on this pool
     total cpu time spent up to now is        3.1 secs

     Computing kpt #:    69  of   111 on this pool
     total cpu time spent up to now is        3.1 secs

     Computing kpt #:    70  of   111 on this pool
     total cpu time spent up to now is        3.1 secs

     Computing kpt #:    71  of   111 on this pool
     total cpu time spent up to now is        3.2 secs

     Computing kpt #:    72  of   111 on this pool
     total cpu time spent up to now is        3.2 secs

     Computing kpt #:    73  of   111 on this pool
     total cpu time spent up to now is        3.3 secs

     Computing kpt #:    74  of   111 on this pool
     total cpu time spent up to now is        3.3 secs

     Computing kpt #:    75  of   111 on this pool
     total cpu time spent up to now is        3.4 secs

     Computing kpt #:    76  of   111 on this pool
     total cpu time spent up to now is        3.4 secs

     Computing kpt #:    77  of   111 on this pool
     total cpu time spent up to now is        3.4 secs

     Computing kpt #:    78  of   111 on this pool
     total cpu time spent up to now is        3.5 secs

     Computing kpt #:    79  of   111 on this pool
     total cpu time spent up to now is        3.5 secs

     Computing kpt #:    80  of   111 on this pool
     total cpu time spent up to now is        3.6 secs

     Computing kpt #:    81  of   111 on this pool
     total cpu time spent up to now is        3.6 secs

     Computing kpt #:    82  of   111 on this pool
     total cpu time spent up to now is        3.7 secs

     Computing kpt #:    83  of   111 on this pool
     total cpu time spent up to now is        3.7 secs

     Computing kpt #:    84  of   111 on this pool
     total cpu time spent up to now is        3.7 secs

     Computing kpt #:    85  of   111 on this pool
     total cpu time spent up to now is        3.8 secs

     Computing kpt #:    86  of   111 on this pool
     total cpu time spent up to now is        3.8 secs

     Computing kpt #:    87  of   111 on this pool
     total cpu time spent up to now is        3.9 secs

     Computing kpt #:    88  of   111 on this pool
     total cpu time spent up to now is        3.9 secs

     Computing kpt #:    89  of   111 on this pool
     total cpu time spent up to now is        4.0 secs

     Computing kpt #:    90  of   111 on this pool
     total cpu time spent up to now is        4.0 secs

     Computing kpt #:    91  of   111 on this pool
     total cpu time spent up to now is        4.0 secs

     Computing kpt #:    92  of   111 on this pool
     total cpu time spent up to now is        4.1 secs

     Computing kpt #:    93  of   111 on this pool
     total cpu time spent up to now is        4.1 secs

     Computing kpt #:    94  of   111 on this pool
     total cpu time spent up to now is        4.2 secs

     Computing kpt #:    95  of   111 on this pool
     total cpu time spent up to now is        4.2 secs

     Computing kpt #:    96  of   111 on this pool
     total cpu time spent up to now is        4.2 secs

     Computing kpt #:    97  of   111 on this pool
     total cpu time spent up to now is        4.3 secs

     Computing kpt #:    98  of   111 on this pool
     total cpu time spent up to now is        4.3 secs

     Computing kpt #:    99  of   111 on this pool
     total cpu time spent up to now is        4.4 secs

     Computing kpt #:   100  of   111 on this pool
     total cpu time spent up to now is        4.4 secs

     Computing kpt #:   101  of   111 on this pool
     total cpu time spent up to now is        4.4 secs

     Computing kpt #:   102  of   111 on this pool
     total cpu time spent up to now is        4.5 secs

     Computing kpt #:   103  of   111 on this pool
     total cpu time spent up to now is        4.5 secs

     Computing kpt #:   104  of   111 on this pool
     total cpu time spent up to now is        4.5 secs

     Computing kpt #:   105  of   111 on this pool
     total cpu time spent up to now is        4.6 secs

     Computing kpt #:   106  of   111 on this pool
     total cpu time spent up to now is        4.6 secs

     Computing kpt #:   107  of   111 on this pool
     total cpu time spent up to now is        4.7 secs

     Computing kpt #:   108  of   111 on this pool
     total cpu time spent up to now is        4.7 secs

     Computing kpt #:   109  of   111 on this pool
     total cpu time spent up to now is        4.7 secs

     Computing kpt #:   110  of   111 on this pool
     total cpu time spent up to now is        4.8 secs

     Computing kpt #:   111  of   111 on this pool
     total cpu time spent up to now is        4.8 secs

     ethr =  2.78E-09,  avg # of iterations = 12.9

     total cpu time spent up to now is        4.8 secs

     End of band structure calculation

 ------ SPIN UP ------------


          k = 0.0000 0.0000 0.0000 (   633 PWs)   bands (ev):

   -85.2000 -83.9189 -45.7325 -45.6947 -45.6161 -44.4534 -44.4280 -44.4126
     8.6810  12.1496  13.8862  13.9008  14.6171  14.8601  14.8677  15.6662
    15.6725  17.4914

          k = 0.0250-0.0144 0.0510 (   641 PWs)   bands (ev):

   -85.1998 -83.9187 -45.7337 -45.6951 -45.6161 -44.4535 -44.4292 -44.4130
     8.7038  12.1636  13.8783  13.9089  14.6228  14.8345  14.8683  15.6656
    15.6711  17.4030

          k = 0.0500-0.0289 0.1021 (   634 PWs)   bands (ev):

   -85.1993 -83.9182 -45.7368 -45.6958 -45.6155 -44.4535 -44.4323 -44.4138
     8.7721  12.2074  13.8573  13.9365  14.6396  14.7649  14.8718  15.6455
    15.6877  17.2391

          k = 0.0750-0.0433 0.1531 (   635 PWs)   bands (ev):

   -85.1985 -83.9174 -45.7420 -45.6971 -45.6146 -44.4539 -44.4372 -44.4152
     8.8851  12.2782  13.8234  13.9808  14.6523  14.6698  14.8766  15.6122
    15.7131  17.0738

          k = 0.1000-0.0577 0.2041 (   633 PWs)   bands (ev):

   -85.1974 -83.9163 -45.7490 -45.6989 -45.6134 -44.4554 -44.4428 -44.4171
     9.0419  12.3738  13.7788  14.0419  14.5184  14.7027  14.8817  15.5694
    15.7489  16.9213

          k = 0.1250-0.0722 0.2552 (   631 PWs)   bands (ev):

   -85.1961 -83.9150 -45.7579 -45.7012 -45.6117 -44.4606 -44.4467 -44.4195
     9.2407  12.4904  13.7259  14.1176  14.3635  14.7444  14.8879  15.5215
    15.7943  16.7808

          k = 0.1500-0.0866 0.3062 (   629 PWs)   bands (ev):

   -85.1946 -83.9134 -45.7683 -45.7037 -45.6097 -44.4700 -44.4479 -44.4222
     9.4794  12.6212  13.6709  14.1999  14.2063  14.7875  14.8944  15.4759
    15.8488  16.6494

          k = 0.1750-0.1010 0.3572 (   622 PWs)   bands (ev):

   -85.1929 -83.9117 -45.7799 -45.7065 -45.6074 -44.4817 -44.4477 -44.4252
     9.7548  12.7565  13.6227  14.0365  14.3049  14.8226  14.9025  15.4440
    15.9101  16.5261

          k = 0.2000-0.1155 0.4082 (   617 PWs)   bands (ev):

   -85.1911 -83.9098 -45.7925 -45.7095 -45.6049 -44.4949 -44.4471 -44.4284
    10.0627  12.8781  13.5967  13.8783  14.4087  14.8360  14.9146  15.4420
    15.9762  16.4093

          k = 0.2250-0.1299 0.4593 (   615 PWs)   bands (ev):

   -85.1892 -83.9079 -45.8057 -45.7128 -45.6023 -44.5089 -44.4465 -44.4320
    10.3975  12.9604  13.6150  13.7325  14.5101  14.8183  14.9343  15.4812
    16.0433  16.3021

          k = 0.2500-0.1443 0.5103 (   615 PWs)   bands (ev):

   -85.1873 -83.9059 -45.8192 -45.7162 -45.5997 -44.5232 -44.4457 -44.4355
    10.7509  12.9864  13.5849  13.7105  14.5986  14.7732  14.9715  15.5564
    16.1084  16.2111

          k = 0.2750-0.1588 0.5613 (   615 PWs)   bands (ev):

   -85.1854 -83.9039 -45.8328 -45.7195 -45.5970 -44.5376 -44.4449 -44.4391
    11.1118  12.9685  13.4663  13.8395  14.6625  14.7138  15.0359  15.6471
    16.1553  16.1684

          k = 0.3000-0.1732 0.6124 (   618 PWs)   bands (ev):

   -85.1836 -83.9020 -45.8460 -45.7228 -45.5945 -44.5517 -44.4442 -44.4427
    11.4642  12.9345  13.3612  13.9914  14.6531  14.6982  15.1276  15.7056
    16.1817  16.2203

          k = 0.3250-0.1876 0.6634 (   622 PWs)   bands (ev):

   -85.1818 -83.9002 -45.8586 -45.7260 -45.5920 -44.5651 -44.4461 -44.4434
    11.7854  12.9062  13.2734  14.1377  14.6074  14.7143  15.2358  15.6970
    16.2617  16.3312

          k = 0.3500-0.2021 0.7144 (   620 PWs)   bands (ev):

   -85.1802 -83.8986 -45.8701 -45.7288 -45.5897 -44.5773 -44.4491 -44.4427
    12.0453  12.9035  13.2042  14.2497  14.6018  14.7203  15.3499  15.6503
    16.2932  16.5878

          k = 0.3750-0.2165 0.7655 (   625 PWs)   bands (ev):

   -85.1788 -83.8971 -45.8805 -45.7314 -45.5877 -44.5884 -44.4519 -44.4422
    12.2151  12.9383  13.1577  14.3043  14.6534  14.7207  15.4603  15.5955
    16.3120  16.9321

          k = 0.4000-0.2309 0.8165 (   621 PWs)   bands (ev):

   -85.1776 -83.8958 -45.8892 -45.7336 -45.5859 -44.5977 -44.4542 -44.4416
    12.2960  12.9845  13.1503  14.3240  14.7191  14.7369  15.5465  15.5619
    16.3214  17.3638

          k = 0.4250-0.2454 0.8675 (   621 PWs)   bands (ev):

   -85.1766 -83.8948 -45.8962 -45.7354 -45.5845 -44.6052 -44.4561 -44.4411
    12.3220  12.9976  13.1888  14.3378  14.7166  14.8150  15.5083  15.6493
    16.3228  17.8805

          k = 0.4500-0.2598 0.9186 (   623 PWs)   bands (ev):

   -85.1759 -83.8941 -45.9014 -45.7367 -45.5836 -44.6107 -44.4575 -44.4409
    12.3256  12.9916  13.2349  14.3532  14.7142  14.8713  15.4828  15.7167
    16.3187  18.3193

          k = 0.4750-0.2742 0.9696 (   624 PWs)   bands (ev):

   -85.1754 -83.8936 -45.9045 -45.7375 -45.5830 -44.6140 -44.4584 -44.4407
    12.3228  12.9846  13.2640  14.3670  14.7125  14.9038  15.4690  15.7600
    16.3141  18.3386

          k = 0.5000-0.2887 1.0206 (   622 PWs)   bands (ev):

   -85.1753 -83.8934 -45.9055 -45.7378 -45.5827 -44.6151 -44.4586 -44.4406
    12.3213  12.9821  13.2733  14.3725  14.7120  14.9142  15.4652  15.7753
    16.3124  18.3452

          k = 0.5000-0.2598 1.0410 (   623 PWs)   bands (ev):

   -85.1753 -83.8934 -45.9054 -45.7379 -45.5827 -44.6149 -44.4588 -44.4406
    12.3236  12.9658  13.2919  14.3673  14.6998  14.9198  15.4767  15.7760
    16.3117  18.3375

          k = 0.5000-0.2309 1.0614 (   623 PWs)   bands (ev):

   -85.1753 -83.8934 -45.9050 -45.7384 -45.5828 -44.6144 -44.4593 -44.4405
    12.3305  12.9265  13.3384  14.3523  14.6682  14.9332  15.5088  15.7794
    16.3100  18.3146

          k = 0.5000-0.2021 1.0819 (   620 PWs)   bands (ev):

   -85.1753 -83.8934 -45.9043 -45.7391 -45.5828 -44.6135 -44.4600 -44.4404
    12.3421  12.8776  13.3987  14.3282  14.6265  14.9479  15.5553  15.7890
    16.3078  18.2761

          k = 0.5000-0.1732 1.1023 (   620 PWs)   bands (ev):

   -85.1752 -83.8934 -45.9033 -45.7402 -45.5829 -44.6123 -44.4611 -44.4403
    12.3584  12.8265  13.4643  14.2958  14.5811  14.9585  15.6069  15.8097
    16.3038  18.2221

          k = 0.5000-0.1443 1.1227 (   620 PWs)   bands (ev):

   -85.1752 -83.8934 -45.9021 -45.7416 -45.5830 -44.6108 -44.4624 -44.4401
    12.3790  12.7769  13.5307  14.2570  14.5368  14.9627  15.6551  15.8477
    16.2993  18.1532

          k = 0.5000-0.1155 1.1431 (   622 PWs)   bands (ev):

   -85.1752 -83.8935 -45.9007 -45.7433 -45.5833 -44.6090 -44.4641 -44.4400
    12.4041  12.7307  13.5942  14.2131  14.4965  14.9586  15.6956  15.9035
    16.2946  18.0717

          k = 0.5000-0.0866 1.1635 (   622 PWs)   bands (ev):

   -85.1752 -83.8935 -45.8990 -45.7452 -45.5835 -44.6068 -44.4660 -44.4398
    12.4335  12.6893  13.6517  14.1667  14.4616  14.9456  15.7324  15.9709
    16.2920  17.9806

          k = 0.5000-0.0577 1.1839 (   623 PWs)   bands (ev):

   -85.1752 -83.8935 -45.8972 -45.7474 -45.5836 -44.6045 -44.4682 -44.4396
    12.4666  12.6531  13.6997  14.1205  14.4315  14.9264  15.7678  16.0390
    16.2959  17.8831

          k = 0.5000-0.0289 1.2043 (   619 PWs)   bands (ev):

   -85.1751 -83.8935 -45.8950 -45.7497 -45.5838 -44.6018 -44.4705 -44.4394
    12.5016  12.6248  13.7342  14.0778  14.4055  14.9048  15.8016  16.0983
    16.3147  17.7825

          k = 0.5000 0.0000 1.2247 (   617 PWs)   bands (ev):

   -85.1751 -83.8935 -45.8927 -45.7522 -45.5840 -44.5990 -44.4730 -44.4391
    12.5303  12.6120  13.7515  14.0414  14.3797  14.8868  15.8290  16.1422
    16.3545  17.6811

          k = 0.5000 0.0289 1.2452 (   619 PWs)   bands (ev):

   -85.1751 -83.8935 -45.8903 -45.7549 -45.5843 -44.5961 -44.4756 -44.4390
    12.5350  12.6322  13.7492  14.0129  14.3510  14.8790  15.8428  16.1770
    16.4113  17.5804

          k = 0.5000 0.0577 1.2656 (   623 PWs)   bands (ev):

   -85.1751 -83.8935 -45.8878 -45.7577 -45.5846 -44.5931 -44.4785 -44.4389
    12.5233  12.6770  13.7286  13.9921  14.3165  14.8865  15.8374  16.2148
    16.4756  17.4827

          k = 0.5000 0.0866 1.2860 (   622 PWs)   bands (ev):

   -85.1751 -83.8935 -45.8852 -45.7606 -45.5847 -44.5900 -44.4813 -44.4386
    12.5100  12.7326  13.6941  13.9754  14.2768  14.9108  15.8137  16.2614
    16.5405  17.3900

          k = 0.5000 0.1155 1.3064 (   622 PWs)   bands (ev):

   -85.1750 -83.8936 -45.8826 -45.7634 -45.5849 -44.5869 -44.4842 -44.4384
    12.4982  12.7939  13.6496  13.9594  14.2346  14.9505  15.7745  16.3151
    16.6008  17.3024

          k = 0.5000 0.1443 1.3268 (   620 PWs)   bands (ev):

   -85.1750 -83.8936 -45.8800 -45.7662 -45.5851 -44.5839 -44.4869 -44.4383
    12.4889  12.8602  13.5978  13.9423  14.1944  15.0027  15.7232  16.3725
    16.6544  17.2212

          k = 0.5000 0.1732 1.3472 (   620 PWs)   bands (ev):

   -85.1750 -83.8936 -45.8774 -45.7689 -45.5852 -44.5811 -44.4896 -44.4381
    12.4819  12.9302  13.5400  13.9239  14.1594  15.0639  15.6627  16.4301
    16.6998  17.1467

          k = 0.5000 0.2021 1.3676 (   620 PWs)   bands (ev):

   -85.1750 -83.8936 -45.8750 -45.7715 -45.5854 -44.5786 -44.4919 -44.4380
    12.4768  13.0025  13.4772  13.9060  14.1322  15.1309  15.5967  16.4847
    16.7357  17.0805

          k = 0.5000 0.2309 1.3880 (   623 PWs)   bands (ev):

   -85.1750 -83.8936 -45.8727 -45.7740 -45.5855 -44.5764 -44.4941 -44.4380
    12.4737  13.0747  13.4112  13.8906  14.1132  15.2002  15.5271  16.5316
    16.7615  17.0258

          k = 0.5000 0.2598 1.4085 (   623 PWs)   bands (ev):

   -85.1750 -83.8936 -45.8707 -45.7761 -45.5855 -44.5746 -44.4958 -44.4380
    12.4724  13.1413  13.3481  13.8802  14.1021  15.2664  15.4612  16.5646
    16.7765  16.9893

          k = 0.5000 0.2887 1.4289 (   622 PWs)   bands (ev):

   -85.1750 -83.8936 -45.8690 -45.7778 -45.5855 -44.5734 -44.4970 -44.4379
    12.4725  13.1751  13.3151  13.8769  14.0981  15.3011  15.4267  16.5758
    16.7793  16.9789

          k = 0.4938 0.3067 1.4263 (   622 PWs)   bands (ev):

   -85.1748 -83.8934 -45.8690 -45.7798 -45.5853 -44.5736 -44.4990 -44.4377
    12.4819  13.1770  13.3226  13.8779  14.0906  15.3023  15.4473  16.5766
    16.7686  17.0046

          k = 0.4875 0.3248 1.4238 (   623 PWs)   bands (ev):

   -85.1746 -83.8931 -45.8690 -45.7819 -45.5851 -44.5738 -44.5010 -44.4375
    12.4931  13.1771  13.3318  13.8796  14.0826  15.2995  15.4699  16.5724
    16.7549  17.0321

          k = 0.4813 0.3428 1.4212 (   621 PWs)   bands (ev):

   -85.1744 -83.8929 -45.8688 -45.7839 -45.5848 -44.5738 -44.5030 -44.4373
    12.5066  13.1762  13.3425  13.8817  14.0748  15.2944  15.4929  16.5636
    16.7388  17.0610

          k = 0.4750 0.3608 1.4187 (   623 PWs)   bands (ev):

   -85.1742 -83.8927 -45.8687 -45.7859 -45.5846 -44.5739 -44.5050 -44.4371
    12.5219  13.1743  13.3534  13.8839  14.0663  15.2880  15.5150  16.5507
    16.7200  17.0905

          k = 0.4688 0.3789 1.4161 (   620 PWs)   bands (ev):

   -85.1740 -83.8925 -45.8684 -45.7878 -45.5843 -44.5739 -44.5068 -44.4369
    12.5396  13.1722  13.3649  13.8867  14.0580  15.2809  15.5365  16.5345
    16.6995  17.1209

          k = 0.4625 0.3969 1.4136 (   619 PWs)   bands (ev):

   -85.1738 -83.8923 -45.8680 -45.7898 -45.5841 -44.5738 -44.5087 -44.4368
    12.5593  13.1699  13.3764  13.8886  14.0499  15.2734  15.5565  16.5146
    16.6778  17.1514

          k = 0.4562 0.4150 1.4110 (   619 PWs)   bands (ev):

   -85.1736 -83.8921 -45.8675 -45.7917 -45.5838 -44.5737 -44.5105 -44.4366
    12.5808  13.1677  13.3878  13.8899  14.0422  15.2657  15.5746  16.4918
    16.6547  17.1815

          k = 0.4500 0.4330 1.4085 (   618 PWs)   bands (ev):

   -85.1735 -83.8920 -45.8670 -45.7936 -45.5836 -44.5735 -44.5122 -44.4365
    12.6044  13.1656  13.3990  13.8896  14.0358  15.2578  15.5910  16.4668
    16.6307  17.2113

          k = 0.4437 0.4511 1.4059 (   616 PWs)   bands (ev):

   -85.1733 -83.8918 -45.8664 -45.7954 -45.5833 -44.5733 -44.5138 -44.4364
    12.6298  13.1638  13.4100  13.8870  14.0314  15.2500  15.6063  16.4392
    16.6065  17.2408

          k = 0.4375 0.4691 1.4034 (   614 PWs)   bands (ev):

   -85.1732 -83.8916 -45.8656 -45.7972 -45.5831 -44.5730 -44.5154 -44.4364
    12.6570  13.1622  13.4205  13.8811  14.0296  15.2428  15.6192  16.4098
    16.5823  17.2694

          k = 0.4313 0.4871 1.4008 (   614 PWs)   bands (ev):

   -85.1730 -83.8915 -45.8649 -45.7990 -45.5829 -44.5728 -44.5169 -44.4363
    12.6859  13.1607  13.4304  13.8715  14.0308  15.2352  15.6308  16.3786
    16.5576  17.2966

          k = 0.4250 0.5052 1.3983 (   614 PWs)   bands (ev):

   -85.1729 -83.8914 -45.8640 -45.8007 -45.5827 -44.5725 -44.5184 -44.4363
    12.7165  13.1593  13.4396  13.8583  14.0350  15.2279  15.6412  16.3461
    16.5332  17.3225

          k = 0.4188 0.5232 1.3957 (   616 PWs)   bands (ev):

   -85.1728 -83.8913 -45.8631 -45.8025 -45.5825 -44.5722 -44.5198 -44.4363
    12.7483  13.1582  13.4478  13.8419  14.0418  15.2204  15.6499  16.3120
    16.5092  17.3470

          k = 0.4125 0.5413 1.3931 (   614 PWs)   bands (ev):

   -85.1728 -83.8912 -45.8622 -45.8042 -45.5823 -44.5719 -44.5211 -44.4362
    12.7817  13.1572  13.4554  13.8228  14.0507  15.2137  15.6578  16.2783
    16.4860  17.3704

          k = 0.4062 0.5593 1.3906 (   614 PWs)   bands (ev):

   -85.1727 -83.8911 -45.8612 -45.8057 -45.5821 -44.5715 -44.5222 -44.4362
    12.8162  13.1563  13.4619  13.8012  14.0605  15.2074  15.6646  16.2437
    16.4634  17.3920

          k = 0.4000 0.5774 1.3880 (   618 PWs)   bands (ev):

   -85.1726 -83.8910 -45.8602 -45.8073 -45.5820 -44.5712 -44.5233 -44.4363
    12.8516  13.1550  13.4670  13.7777  14.0711  15.2012  15.6698  16.2088
    16.4417  17.4118

          k = 0.3937 0.5954 1.3855 (   616 PWs)   bands (ev):

   -85.1726 -83.8910 -45.8590 -45.8088 -45.5819 -44.5708 -44.5242 -44.4363
    12.8880  13.1542  13.4708  13.7537  14.0822  15.1958  15.6754  16.1744
    16.4215  17.4301

          k = 0.3875 0.6134 1.3829 (   617 PWs)   bands (ev):

   -85.1725 -83.8909 -45.8579 -45.8102 -45.5818 -44.5705 -44.5250 -44.4363
    12.9251  13.1532  13.4727  13.7286  14.0930  15.1904  15.6802  16.1405
    16.4024  17.4464

          k = 0.3812 0.6315 1.3804 (   619 PWs)   bands (ev):

   -85.1725 -83.8909 -45.8567 -45.8116 -45.5817 -44.5701 -44.5257 -44.4364
    12.9626  13.1521  13.4723  13.7034  14.1034  15.1855  15.6840  16.1077
    16.3847  17.4607

          k = 0.3750 0.6495 1.3778 (   617 PWs)   bands (ev):

   -85.1725 -83.8909 -45.8554 -45.8128 -45.5816 -44.5697 -44.5262 -44.4364
    13.0003  13.1515  13.4693  13.6794  14.1130  15.1813  15.6883  16.0764
    16.3691  17.4734

          k = 0.3563 0.6170 1.3089 (   620 PWs)   bands (ev):

   -85.1722 -83.8906 -45.8526 -45.8191 -45.5816 -44.5611 -44.5378 -44.4359
    13.0029  13.2275  13.4525  13.6180  14.0716  15.3114  15.5774  16.2113
    16.3981  17.3799

          k = 0.3375 0.5846 1.2401 (   621 PWs)   bands (ev):

   -85.1720 -83.8904 -45.8547 -45.8187 -45.5817 -44.5566 -44.5436 -44.4356
    12.9443  13.2787  13.4185  13.6475  14.0392  15.4327  15.4780  16.3442
    16.4041  17.3122

          k = 0.3187 0.5521 1.1712 (   619 PWs)   bands (ev):

   -85.1721 -83.8905 -45.8601 -45.8126 -45.5819 -44.5630 -44.5363 -44.4355
    12.8616  13.3208  13.3581  13.7294  14.0149  15.3950  15.5219  16.3711
    16.4801  17.2746

          k = 0.3000 0.5196 1.1023 (   613 PWs)   bands (ev):

   -85.1724 -83.8909 -45.8652 -45.8040 -45.5823 -44.5698 -44.5259 -44.4357
    12.7868  13.2278  13.4434  13.7853  13.9999  15.3267  15.5671  16.3430
    16.5584  17.2671

          k = 0.2812 0.4871 1.0334 (   612 PWs)   bands (ev):

   -85.1731 -83.8916 -45.8686 -45.7943 -45.5830 -44.5744 -44.5149 -44.4362
    12.7288  13.1482  13.5186  13.8016  13.9990  15.2697  15.5643  16.3074
    16.5785  17.2738

          k = 0.2625 0.4547 0.9645 (   614 PWs)   bands (ev):

   -85.1741 -83.8926 -45.8693 -45.7843 -45.5841 -44.5759 -44.5039 -44.4371
    12.6868  13.0893  13.5279  13.8147  14.0140  15.2216  15.5189  16.2605
    16.5462  17.2525

          k = 0.2437 0.4222 0.8956 (   623 PWs)   bands (ev):

   -85.1755 -83.8940 -45.8670 -45.7744 -45.5857 -44.5742 -44.4932 -44.4382
    12.6461  13.0540  13.4330  13.8474  14.0530  15.1825  15.4425  16.1874
    16.4765  17.1494

          k = 0.2250 0.3897 0.8267 (   620 PWs)   bands (ev):

   -85.1772 -83.8957 -45.8614 -45.7645 -45.5875 -44.5689 -44.4828 -44.4394
    12.5634  13.0435  13.2947  13.8451  14.1345  15.1575  15.3520  16.0557
    16.3943  16.9569

          k = 0.2062 0.3572 0.7578 (   617 PWs)   bands (ev):

   -85.1792 -83.8977 -45.8528 -45.7550 -45.5897 -44.5604 -44.4728 -44.4406
    12.3518  13.0609  13.2097  13.7896  14.2454  15.1502  15.2623  15.8407
    16.3210  16.7447

          k = 0.1875 0.3248 0.6889 (   623 PWs)   bands (ev):

   -85.1815 -83.9000 -45.8418 -45.7460 -45.5924 -44.5492 -44.4637 -44.4420
    11.9834  13.1118  13.2148  13.6927  14.3603  15.1586  15.1827  15.5740
    16.2659  16.5644

          k = 0.1687 0.2923 0.6200 (   618 PWs)   bands (ev):

   -85.1839 -83.9025 -45.8283 -45.7375 -45.5953 -44.5353 -44.4554 -44.4430
    11.5205  13.1727  13.2867  13.5787  14.4643  15.1095  15.1705  15.3249
    16.2344  16.4166

          k = 0.1500 0.2598 0.5511 (   618 PWs)   bands (ev):

   -85.1864 -83.9050 -45.8136 -45.7297 -45.5985 -44.5199 -44.4491 -44.4426
    11.0234  13.1770  13.3808  13.5350  14.5355  15.0111  15.0735  15.2628
    16.2031  16.3163

          k = 0.1312 0.2273 0.4822 (   618 PWs)   bands (ev):

   -85.1889 -83.9076 -45.7982 -45.7226 -45.6018 -44.5036 -44.4475 -44.4382
    10.5326  13.0586  13.4517  13.6652  14.5290  14.8778  14.9982  15.3085
    16.1025  16.3358

          k = 0.1125 0.1949 0.4134 (   618 PWs)   bands (ev):

   -85.1914 -83.9102 -45.7828 -45.7162 -45.6050 -44.4873 -44.4477 -44.4325
    10.0745  12.8795  13.5370  13.8652  14.4178  14.8291  14.9401  15.3711
    15.9864  16.4227

          k = 0.0938 0.1624 0.3445 (   622 PWs)   bands (ev):

   -85.1937 -83.9125 -45.7685 -45.7105 -45.6082 -44.4723 -44.4478 -44.4272
     9.6666  12.6903  13.6278  14.0871  14.2730  14.7967  14.9061  15.4415
    15.8837  16.5482

          k = 0.0750 0.1299 0.2756 (   621 PWs)   bands (ev):

   -85.1958 -83.9146 -45.7558 -45.7054 -45.6109 -44.4604 -44.4462 -44.4226
     9.3205  12.5131  13.7140  14.1413  14.3151  14.7466  14.8941  15.5126
    15.8010  16.7051

          k = 0.0562 0.0974 0.2067 (   624 PWs)   bands (ev):

   -85.1975 -83.9164 -45.7455 -45.7011 -45.6132 -44.4549 -44.4406 -44.4187
     9.0444  12.3616  13.7876  14.0360  14.5275  14.6948  14.8855  15.5765
    15.7402  16.8914

          k = 0.0375 0.0650 0.1378 (   636 PWs)   bands (ev):

   -85.1989 -83.9178 -45.7384 -45.6978 -45.6149 -44.4538 -44.4340 -44.4157
     8.8436  12.2458  13.8420  13.9588  14.6516  14.7038  14.8755  15.6269
    15.6990  17.1075

          k = 0.0187 0.0325 0.0689 (   637 PWs)   bands (ev):

   -85.1997 -83.9186 -45.7340 -45.6955 -45.6159 -44.4535 -44.4295 -44.4135
     8.7218  12.1733  13.8761  13.9135  14.6265  14.8197  14.8685  15.6593
    15.6768  17.3438

          k = 0.0000 0.0000 0.0000 (   633 PWs)   bands (ev):

   -85.2000 -83.9189 -45.7325 -45.6947 -45.6161 -44.4534 -44.4280 -44.4126
     8.6810  12.1496  13.8862  13.9008  14.6171  14.8601  14.8677  15.6662
    15.6725  17.4914

          k = 0.0250 0.0433 0.0306 (   641 PWs)   bands (ev):

   -85.1998 -83.9187 -45.7331 -45.6957 -45.6161 -44.4534 -44.4285 -44.4136
     8.7038  12.1635  13.8859  13.9012  14.6228  14.8400  14.8630  15.6605
    15.6763  17.3958

          k = 0.0500 0.0866 0.0612 (   634 PWs)   bands (ev):

   -85.1993 -83.9182 -45.7344 -45.6982 -45.6154 -44.4533 -44.4300 -44.4162
     8.7721  12.2072  13.8677  13.9259  14.6401  14.7711  14.8660  15.6410
    15.6927  17.2237

          k = 0.0750 0.1299 0.0919 (   635 PWs)   bands (ev):

   -85.1985 -83.9174 -45.7369 -45.7023 -45.6145 -44.4533 -44.4329 -44.4201
     8.8851  12.2777  13.8344  13.9694  14.6622  14.6677  14.8705  15.6081
    15.7181  17.0525

          k = 0.1000 0.1732 0.1225 (   633 PWs)   bands (ev):

   -85.1975 -83.9163 -45.7406 -45.7075 -45.6133 -44.4534 -44.4377 -44.4243
     9.0418  12.3729  13.7905  14.0299  14.5269  14.7032  14.8756  15.5659
    15.7539  16.8954

          k = 0.1250 0.2165 0.1531 (   631 PWs)   bands (ev):

   -85.1961 -83.9150 -45.7458 -45.7134 -45.6115 -44.4545 -44.4441 -44.4281
     9.2406  12.4888  13.7384  14.1045  14.3727  14.7452  14.8819  15.5186
    15.7992  16.7512

          k = 0.1500 0.2598 0.1837 (   629 PWs)   bands (ev):

   -85.1946 -83.9134 -45.7528 -45.7194 -45.6095 -44.4599 -44.4485 -44.4316
     9.4792  12.6184  13.6847  14.1885  14.2132  14.7884  14.8889  15.4739
    15.8534  16.6165

          k = 0.1750 0.3031 0.2143 (   622 PWs)   bands (ev):

   -85.1929 -83.9117 -45.7617 -45.7250 -45.6071 -44.4705 -44.4494 -44.4347
     9.7545  12.7521  13.6381  14.0463  14.2895  14.8232  14.8982  15.4436
    15.9142  16.4903

          k = 0.2000 0.3464 0.2449 (   617 PWs)   bands (ev):

   -85.1911 -83.9098 -45.7722 -45.7301 -45.6046 -44.4832 -44.4497 -44.4376
    10.0624  12.8716  13.6138  13.8892  14.3907  14.8358  14.9121  15.4442
    15.9796  16.3707

          k = 0.2250 0.3897 0.2756 (   615 PWs)   bands (ev):

   -85.1892 -83.9079 -45.7840 -45.7348 -45.6020 -44.4969 -44.4502 -44.4401
    10.3969  12.9529  13.6300  13.7471  14.4887  14.8171  14.9344  15.4870
    16.0458  16.2604

          k = 0.2500 0.4330 0.3062 (   615 PWs)   bands (ev):

   -85.1873 -83.9059 -45.7965 -45.7392 -45.5994 -44.5112 -44.4516 -44.4418
    10.7502  12.9803  13.5897  13.7345  14.5734  14.7711  14.9747  15.5662
    16.1095  16.1663

          k = 0.2750 0.4763 0.3368 (   615 PWs)   bands (ev):

   -85.1854 -83.9039 -45.8094 -45.7433 -45.5967 -44.5255 -44.4539 -44.4424
    11.1109  12.9651  13.4730  13.8592  14.6349  14.7113  15.0410  15.6591
    16.1075  16.1698

          k = 0.3000 0.5196 0.3674 (   618 PWs)   bands (ev):

   -85.1836 -83.9020 -45.8221 -45.7471 -45.5941 -44.5395 -44.4567 -44.4424
    11.4631  12.9337  13.3679  14.0085  14.6499  14.6709  15.1325  15.7093
    16.1426  16.2207

          k = 0.3250 0.5629 0.3980 (   622 PWs)   bands (ev):

   -85.1818 -83.9002 -45.8343 -45.7507 -45.5917 -44.5528 -44.4597 -44.4421
    11.7840  12.9079  13.2795  14.1522  14.6055  14.6875  15.2395  15.6853
    16.2606  16.3086

          k = 0.3500 0.6062 0.4287 (   620 PWs)   bands (ev):

   -85.1802 -83.8986 -45.8455 -45.7538 -45.5894 -44.5650 -44.4625 -44.4416
    12.0439  12.9079  13.2089  14.2600  14.6032  14.6944  15.3524  15.6282
    16.2920  16.5751

          k = 0.3750 0.6495 0.4593 (   625 PWs)   bands (ev):

   -85.1788 -83.8971 -45.8557 -45.7566 -45.5874 -44.5761 -44.4651 -44.4412
    12.2140  12.9461  13.1594  14.3094  14.6599  14.6956  15.4616  15.5671
    16.3105  16.9254

          k = 0.4000 0.6928 0.4899 (   621 PWs)   bands (ev):

   -85.1776 -83.8958 -45.8643 -45.7589 -45.5856 -44.5853 -44.4674 -44.4407
[...]
    16.5217  17.3010

          k = 0.5000 0.5196 1.1023 (   618 PWs)   bands (ev):

   -85.1752 -83.8874 -45.8555 -45.8234 -45.5838 -44.5566 -44.5371 -44.4331
    13.0851  13.2525  13.4585  13.5054  14.0759  15.3294  15.5763  16.1251
    16.4844  17.3502

          k = 0.5000 0.5485 1.0614 (   620 PWs)   bands (ev):

   -85.1754 -83.8876 -45.8558 -45.8213 -45.5839 -44.5617 -44.5306 -44.4335
    13.2041  13.2269  13.3810  13.4970  14.1098  15.2495  15.6404  16.0349
    16.4386  17.4082

          k = 0.5000 0.5774 1.0206 (   622 PWs)   bands (ev):

   -85.1756 -83.8878 -45.8582 -45.8165 -45.5839 -44.5674 -44.5229 -44.4340
    13.1906  13.2457  13.3403  13.5285  14.1459  15.1694  15.7128  15.9538
    16.3830  17.4751

          k = 0.5000 0.6062 0.9798 (   622 PWs)   bands (ev):

   -85.1760 -83.8881 -45.8617 -45.8100 -45.5840 -44.5730 -44.5148 -44.4345
    13.1077  13.1608  13.4612  13.5617  14.1819  15.0966  15.7913  15.8822
    16.3186  17.5522

          k = 0.5000 0.6351 0.9390 (   624 PWs)   bands (ev):

   -85.1763 -83.8884 -45.8656 -45.8029 -45.5841 -44.5782 -44.5066 -44.4350
    12.9703  13.1302  13.5088  13.6585  14.2170  15.0375  15.8194  15.8738
    16.2451  17.6384

          k = 0.5000 0.6640 0.8981 (   622 PWs)   bands (ev):

   -85.1767 -83.8888 -45.8694 -45.7957 -45.5842 -44.5829 -44.4988 -44.4354
    12.8376  13.1016  13.4979  13.8026  14.2502  14.9955  15.7641  15.9573
    16.1646  17.7344

          k = 0.5000 0.6928 0.8573 (   616 PWs)   bands (ev):

   -85.1770 -83.8891 -45.8729 -45.7887 -45.5841 -44.5872 -44.4913 -44.4358
    12.7132  13.0754  13.4663  13.9562  14.2808  14.9711  15.7150  16.0388
    16.0796  17.8400

          k = 0.5000 0.7217 0.8165 (   612 PWs)   bands (ev):

   -85.1774 -83.8895 -45.8760 -45.7823 -45.5842 -44.5909 -44.4847 -44.4361
    12.6010  13.0518  13.4238  14.1121  14.3078  14.9593  15.6692  15.9919
    16.1164  17.9523

          k = 0.5000 0.7506 0.7757 (   616 PWs)   bands (ev):

   -85.1777 -83.8898 -45.8787 -45.7770 -45.5843 -44.5940 -44.4791 -44.4365
    12.5038  13.0315  13.3778  14.2657  14.3306  14.9546  15.6203  15.9108
    16.1831  18.0684

          k = 0.5000 0.7794 0.7348 (   616 PWs)   bands (ev):

   -85.1780 -83.8900 -45.8808 -45.7725 -45.5845 -44.5965 -44.4745 -44.4368
    12.4256  13.0151  13.3349  14.3486  14.4127  14.9527  15.5640  15.8456
    16.2387  18.1838

          k = 0.5000 0.8083 0.6940 (   620 PWs)   bands (ev):

   -85.1782 -83.8902 -45.8824 -45.7693 -45.5847 -44.5982 -44.4713 -44.4370
    12.3680  13.0031  13.3005  14.3613  14.5440  14.9471  15.5018  15.8012
    16.2799  18.2872

          k = 0.5000 0.8372 0.6532 (   622 PWs)   bands (ev):

   -85.1784 -83.8904 -45.8834 -45.7673 -45.5847 -44.5993 -44.4693 -44.4371
    12.3322  12.9960  13.2778  14.3692  14.6446  14.9361  15.4490  15.7782
    16.3053  18.3635

          k = 0.5000 0.8660 0.6124 (   622 PWs)   bands (ev):

   -85.1784 -83.8904 -45.8837 -45.7667 -45.5848 -44.5997 -44.4686 -44.4372
    12.3203  12.9935  13.2701  14.3719  14.6859  14.9282  15.4276  15.7712
    16.3140  18.3924

          k = 0.4938 0.8552 0.6506 (   622 PWs)   bands (ev):

   -85.1784 -83.8904 -45.8835 -45.7670 -45.5848 -44.5995 -44.4690 -44.4372
    12.3265  12.9907  13.2783  14.3684  14.6618  14.9341  15.4425  15.7749
    16.3095  18.3761

          k = 0.4875 0.8444 0.6889 (   623 PWs)   bands (ev):

   -85.1783 -83.8903 -45.8829 -45.7682 -45.5847 -44.5988 -44.4702 -44.4371
    12.3447  12.9833  13.3013  14.3580  14.6000  14.9460  15.4815  15.7869
    16.2958  18.3300

          k = 0.4813 0.8335 0.7272 (   621 PWs)   bands (ev):

   -85.1782 -83.8902 -45.8818 -45.7701 -45.5847 -44.5976 -44.4720 -44.4370
    12.3751  12.9742  13.3363  14.3386  14.5193  14.9574  15.5327  15.8100
    16.2740  18.2610

          k = 0.4750 0.8227 0.7655 (   618 PWs)   bands (ev):

   -85.1781 -83.8901 -45.8804 -45.7728 -45.5847 -44.5960 -44.4746 -44.4368
    12.4165  12.9656  13.3796  14.3048  14.4364  14.9663  15.5844  15.8466
    16.2448  18.1777

          k = 0.4688 0.8119 0.8037 (   618 PWs)   bands (ev):

   -85.1779 -83.8899 -45.8785 -45.7761 -45.5847 -44.5940 -44.4779 -44.4366
    12.4684  12.9587  13.4284  14.2429  14.3719  14.9730  15.6302  15.8940
    16.2084  18.0870

          k = 0.4625 0.8011 0.8420 (   619 PWs)   bands (ev):

   -85.1777 -83.8897 -45.8763 -45.7801 -45.5847 -44.5916 -44.4818 -44.4364
    12.5296  12.9546  13.4797  14.1538  14.3294  14.9787  15.6710  15.9459
    16.1688  17.9947

          k = 0.4562 0.7902 0.8803 (   617 PWs)   bands (ev):

   -85.1775 -83.8895 -45.8737 -45.7847 -45.5846 -44.5887 -44.4864 -44.4360
    12.5993  12.9541  13.5308  14.0536  14.2968  14.9849  15.7099  15.9875
    16.1360  17.9058

          k = 0.4500 0.7794 0.9186 (   616 PWs)   bands (ev):

   -85.1772 -83.8893 -45.8708 -45.7898 -45.5846 -44.5855 -44.4915 -44.4357
    12.6756  12.9571  13.5788  13.9517  14.2659  14.9938  15.7500  15.9897
    16.1347  17.8230

          k = 0.4437 0.7686 0.9568 (   614 PWs)   bands (ev):

   -85.1769 -83.8890 -45.8675 -45.7953 -45.5845 -44.5819 -44.4970 -44.4353
    12.7570  12.9642  13.6207  13.8516  14.2361  15.0077  15.7916  15.9516
    16.1635  17.7482

          k = 0.4375 0.7578 0.9951 (   615 PWs)   bands (ev):

   -85.1767 -83.8888 -45.8639 -45.8012 -45.5844 -44.5781 -44.5029 -44.4350
    12.8419  12.9746  13.6530  13.7560  14.2062  15.0294  15.8288  15.9052
    16.1958  17.6815

          k = 0.4313 0.7469 1.0334 (   620 PWs)   bands (ev):

   -85.1765 -83.8886 -45.8602 -45.8074 -45.5844 -44.5741 -44.5090 -44.4347
    12.9271  12.9887  13.6517  13.6885  14.1772  15.0595  15.8145  15.9085
    16.2210  17.6236

          k = 0.4250 0.7361 1.0717 (   616 PWs)   bands (ev):

   -85.1762 -83.8884 -45.8560 -45.8135 -45.5843 -44.5698 -44.5151 -44.4344
    13.0017  13.0155  13.5743  13.6930  14.1508  15.0991  15.7605  15.9557
    16.2376  17.5759

          k = 0.4188 0.7253 1.1099 (   616 PWs)   bands (ev):

   -85.1760 -83.8882 -45.8517 -45.8198 -45.5842 -44.5654 -44.5213 -44.4341
    13.0245  13.0901  13.4994  13.6926  14.1280  15.1444  15.7045  16.0097
    16.2442  17.5364

          k = 0.4125 0.7145 1.1482 (   616 PWs)   bands (ev):

   -85.1758 -83.8880 -45.8472 -45.8260 -45.5841 -44.5611 -44.5271 -44.4338
    13.0465  13.1539  13.4392  13.6823  14.1107  15.1909  15.6543  16.0643
    16.2425  17.5052

          k = 0.4062 0.7036 1.1865 (   617 PWs)   bands (ev):

   -85.1757 -83.8879 -45.8428 -45.8318 -45.5841 -44.5574 -44.5322 -44.4337
    13.0688  13.1887  13.4069  13.6655  14.0991  15.2318  15.6155  16.1147
    16.2379  17.4818

          k = 0.4000 0.6928 1.2247 (   613 PWs)   bands (ev):

   -85.1756 -83.8877 -45.8407 -45.8348 -45.5839 -44.5550 -44.5354 -44.4335
    13.0879  13.1843  13.4122  13.6480  14.0934  15.2586  15.5957  16.1476
    16.2440  17.4664

          k = 0.3937 0.6820 1.2630 (   616 PWs)   bands (ev):

   -85.1755 -83.8877 -45.8448 -45.8313 -45.5840 -44.5556 -44.5354 -44.4335
    13.0935  13.1641  13.4347  13.6359  14.0927  15.2616  15.5994  16.1475
    16.2729  17.4572

          k = 0.3875 0.6712 1.3013 (   617 PWs)   bands (ev):

   -85.1755 -83.8877 -45.8498 -45.8264 -45.5840 -44.5586 -44.5325 -44.4335
    13.0715  13.1586  13.4516  13.6381  14.0962  15.2456  15.6222  16.1288
    16.3119  17.4558

          k = 0.3812 0.6603 1.3396 (   618 PWs)   bands (ev):

   -85.1755 -83.8877 -45.8545 -45.8213 -45.5840 -44.5627 -44.5281 -44.4336
    13.0354  13.1586  13.4601  13.6541  14.1029  15.2164  15.6551  16.1038
    16.3466  17.4621

          k = 0.3750 0.6495 1.3778 (   617 PWs)   bands (ev):

   -85.1756 -83.8878 -45.8587 -45.8161 -45.5840 -44.5666 -44.5232 -44.4338
    12.9988  13.1502  13.4679  13.6781  14.1120  15.1812  15.6895  16.0782
    16.3701  17.4748

          k = 0.3875 0.6279 1.3625 (   618 PWs)   bands (ev):

   -85.1756 -83.8878 -45.8588 -45.8167 -45.5841 -44.5653 -44.5250 -44.4336
    12.9605  13.1591  13.4695  13.6988  14.0936  15.2068  15.6673  16.1379
    16.3837  17.4488

          k = 0.4000 0.6062 1.3472 (   617 PWs)   bands (ev):

   -85.1755 -83.8877 -45.8590 -45.8172 -45.5841 -44.5640 -44.5266 -44.4334
    12.9240  13.1696  13.4678  13.7177  14.0758  15.2344  15.6470  16.1992
    16.3962  17.4209

          k = 0.4125 0.5846 1.3319 (   618 PWs)   bands (ev):

   -85.1755 -83.8877 -45.8593 -45.8174 -45.5842 -44.5628 -44.5282 -44.4333
    12.8901  13.1818  13.4618  13.7345  14.0593  15.2630  15.6267  16.2598
    16.4083  17.3911

          k = 0.4250 0.5629 1.3166 (   618 PWs)   bands (ev):

   -85.1754 -83.8877 -45.8598 -45.8174 -45.5843 -44.5618 -44.5295 -44.4332
    12.8595  13.1960  13.4514  13.7497  14.0439  15.2926  15.6071  16.3171
    16.4216  17.3604

          k = 0.4375 0.5413 1.3013 (   619 PWs)   bands (ev):

   -85.1754 -83.8876 -45.8604 -45.8173 -45.5844 -44.5610 -44.5306 -44.4331
    12.8333  13.2123  13.4367  13.7627  14.0307  15.3222  15.5878  16.3643
    16.4398  17.3287

          k = 0.4500 0.5196 1.2860 (   617 PWs)   bands (ev):

   -85.1754 -83.8876 -45.8612 -45.8168 -45.5844 -44.5604 -44.5313 -44.4329
    12.8115  13.2309  13.4184  13.7734  14.0197  15.3513  15.5690  16.3940
    16.4706  17.2985

          k = 0.4625 0.4980 1.2707 (   616 PWs)   bands (ev):

   -85.1753 -83.8876 -45.8621 -45.8162 -45.5845 -44.5602 -44.5316 -44.4328
    12.7944  13.2512  13.3974  13.7817  14.0112  15.3793  15.5502  16.4085
    16.5079  17.2704

          k = 0.4750 0.4763 1.2554 (   615 PWs)   bands (ev):

   -85.1753 -83.8876 -45.8631 -45.8154 -45.5845 -44.5604 -44.5315 -44.4327
    12.7820  13.2733  13.3744  13.7875  14.0052  15.4045  15.5323  16.4163
    16.5410  17.2467

          k = 0.4875 0.4547 1.2401 (   615 PWs)   bands (ev):

   -85.1753 -83.8876 -45.8642 -45.8144 -45.5845 -44.5610 -44.5310 -44.4327
    12.7744  13.2968  13.3503  13.7909  14.0013  15.4248  15.5165  16.4212
    16.5635  17.2301

          k = 0.5000 0.4330 1.2247 (   624 PWs)   bands (ev):

   -85.1753 -83.8876 -45.8656 -45.8133 -45.5846 -44.5621 -44.5302 -44.4327
    12.7716  13.3209  13.3257  13.7911  13.9993  15.4338  15.5071  16.4238
    16.5706  17.2214

          k = 0.5125 0.4114 1.2094 (   615 PWs)   bands (ev):

   -85.1753 -83.8876 -45.8666 -45.8119 -45.5845 -44.5631 -44.5289 -44.4327
    12.7743  13.3015  13.3462  13.7901  14.0004  15.4283  15.5136  16.4263
    16.5643  17.2250

          k = 0.5250 0.3897 1.1941 (   615 PWs)   bands (ev):

   -85.1753 -83.8876 -45.8679 -45.8105 -45.5845 -44.5645 -44.5274 -44.4327
    12.7817  13.2783  13.3706  13.7860  14.0035  15.4096  15.5284  16.4269
    16.5419  17.2369

          k = 0.5375 0.3681 1.1788 (   616 PWs)   bands (ev):

   -85.1753 -83.8876 -45.8692 -45.8090 -45.5845 -44.5661 -44.5258 -44.4328
    12.7939  13.2565  13.3941  13.7793  14.0087  15.3852  15.5462  16.4252
    16.5076  17.2564

          k = 0.5500 0.3464 1.1635 (   617 PWs)   bands (ev):

   -85.1754 -83.8876 -45.8706 -45.8073 -45.5845 -44.5678 -44.5239 -44.4329
    12.8108  13.2363  13.4157  13.7703  14.0165  15.3576  15.5650  16.4176
    16.4678  17.2809

          k = 0.5625 0.3248 1.1482 (   619 PWs)   bands (ev):

   -85.1754 -83.8876 -45.8719 -45.8056 -45.5845 -44.5696 -44.5220 -44.4330
    12.8322  13.2179  13.4346  13.7588  14.0269  15.3288  15.5841  16.3876
    16.4411  17.3079

          k = 0.5750 0.3031 1.1329 (   618 PWs)   bands (ev):

   -85.1754 -83.8877 -45.8733 -45.8038 -45.5844 -44.5714 -44.5200 -44.4331
    12.8579  13.2018  13.4500  13.7451  14.0396  15.2994  15.6036  16.3349
    16.4317  17.3368

          k = 0.5875 0.2815 1.1176 (   618 PWs)   bands (ev):

   -85.1755 -83.8877 -45.8747 -45.8019 -45.5844 -44.5732 -44.5179 -44.4332
    12.8877  13.1878  13.4615  13.7294  14.0546  15.2699  15.6235  16.2740
    16.4248  17.3652

          k = 0.6000 0.2598 1.1023 (   617 PWs)   bands (ev):

   -85.1755 -83.8877 -45.8760 -45.8000 -45.5843 -44.5750 -44.5157 -44.4334
    12.9206  13.1757  13.4687  13.7122  14.0708  15.2414  15.6440  16.2113
    16.4172  17.3929

          k = 0.6125 0.2382 1.0870 (   618 PWs)   bands (ev):

   -85.1756 -83.8878 -45.8773 -45.7981 -45.5842 -44.5767 -44.5136 -44.4335
    12.9558  13.1651  13.4719  13.6931  14.0884  15.2139  15.6646  16.1483
    16.4083  17.4190

          k = 0.6250 0.2165 1.0717 (   617 PWs)   bands (ev):

   -85.1756 -83.8878 -45.8786 -45.7960 -45.5842 -44.5784 -44.5114 -44.4337
    12.9922  13.1561  13.4724  13.6725  14.1067  15.1882  15.6871  16.0871
    16.3976  17.4435

          k = 0.6188 0.1912 1.0691 (   616 PWs)   bands (ev):

   -85.1758 -83.8880 -45.8813 -45.7918 -45.5842 -44.5814 -44.5071 -44.4339
    12.9765  13.1143  13.5024  13.6964  14.1231  15.1474  15.7249  16.0454
    16.3814  17.4789

          k = 0.6125 0.1660 1.0665 (   618 PWs)   bands (ev):

   -85.1759 -83.8881 -45.8839 -45.7877 -45.5843 -44.5843 -44.5029 -44.4343
    12.9554  13.0708  13.5358  13.7210  14.1406  15.1092  15.7614  16.0069
    16.3607  17.5166

          k = 0.6062 0.1407 1.0640 (   617 PWs)   bands (ev):

   -85.1761 -83.8883 -45.8865 -45.7835 -45.5844 -44.5870 -44.4987 -44.4345
    12.9264  13.0322  13.5671  13.7480  14.1590  15.0757  15.7952  15.9740
    16.3361  17.5574

          k = 0.6000 0.1155 1.0614 (   614 PWs)   bands (ev):

   -85.1763 -83.8884 -45.8889 -45.7793 -45.5844 -44.5897 -44.4944 -44.4347
    12.8869  13.0032  13.5903  13.7819  14.1783  15.0471  15.8196  15.9523
    16.3081  17.6015

          k = 0.5938 0.0902 1.0589 (   617 PWs)   bands (ev):

   -85.1765 -83.8886 -45.8913 -45.7753 -45.5845 -44.5923 -44.4904 -44.4351
    12.8387  12.9830  13.6012  13.8247  14.1977  15.0233  15.8240  15.9507
    16.2760  17.6472

          k = 0.5875 0.0650 1.0563 (   621 PWs)   bands (ev):

   -85.1767 -83.8888 -45.8936 -45.7715 -45.5846 -44.5948 -44.4865 -44.4354
    12.7861  12.9690  13.5998  13.8761  14.2174  15.0044  15.8091  15.9688
    16.2409  17.6953

          k = 0.5813 0.0397 1.0538 (   617 PWs)   bands (ev):

   -85.1769 -83.8890 -45.8955 -45.7676 -45.5846 -44.5970 -44.4826 -44.4356
    12.7326  12.9594  13.5887  13.9345  14.2377  14.9907  15.7860  15.9953
    16.2056  17.7466

          k = 0.5750 0.0144 1.0512 (   617 PWs)   bands (ev):

   -85.1770 -83.8891 -45.8975 -45.7640 -45.5846 -44.5991 -44.4789 -44.4359
    12.6793  12.9523  13.5696  13.9971  14.2579  14.9809  15.7603  16.0189
    16.1729  17.7998

          k = 0.5687-0.0108 1.0487 (   616 PWs)   bands (ev):

   -85.1772 -83.8893 -45.8993 -45.7605 -45.5847 -44.6011 -44.4754 -44.4362
    12.6279  12.9477  13.5448  14.0624  14.2778  14.9746  15.7348  16.0280
    16.1531  17.8551

          k = 0.5625-0.0361 1.0461 (   618 PWs)   bands (ev):

   -85.1774 -83.8895 -45.9009 -45.7573 -45.5848 -44.6029 -44.4721 -44.4365
    12.5786  12.9452  13.5159  14.1278  14.2987  14.9700  15.7095  16.0116
    16.1562  17.9118

          k = 0.5563-0.0613 1.0436 (   620 PWs)   bands (ev):

   -85.1776 -83.8896 -45.9025 -45.7544 -45.5849 -44.6046 -44.4692 -44.4368
    12.5323  12.9447  13.4844  14.1915  14.3219  14.9666  15.6848  15.9773
    16.1751  17.9694

          k = 0.5500-0.0866 1.0410 (   618 PWs)   bands (ev):

   -85.1777 -83.8898 -45.9038 -45.7516 -45.5849 -44.6061 -44.4664 -44.4370
    12.4899  12.9460  13.4517  14.2487  14.3515  14.9641  15.6606  15.9374
    16.1998  18.0279

          k = 0.5437-0.1119 1.0385 (   617 PWs)   bands (ev):

   -85.1779 -83.8899 -45.9050 -45.7491 -45.5849 -44.6075 -44.4639 -44.4371
    12.4513  12.9491  13.4187  14.2916  14.3937  14.9611  15.6350  15.8976
    16.2245  18.0860

          k = 0.5375-0.1371 1.0359 (   617 PWs)   bands (ev):

   -85.1780 -83.8900 -45.9061 -45.7470 -45.5849 -44.6086 -44.4618 -44.4373
    12.4172  12.9534  13.3868  14.3189  14.4486  14.9573  15.6074  15.8617
    16.2473  18.1425

          k = 0.5312-0.1624 1.0334 (   618 PWs)   bands (ev):

   -85.1781 -83.8901 -45.9070 -45.7451 -45.5849 -44.6097 -44.4599 -44.4375
    12.3879  12.9587  13.3569  14.3369  14.5086  14.9524  15.5774  15.8311
    16.2675  18.1959

          k = 0.5250-0.1876 1.0308 (   619 PWs)   bands (ev):

   -85.1782 -83.8902 -45.9077 -45.7436 -45.5850 -44.6104 -44.4584 -44.4376
    12.3637  12.9645  13.3303  14.3497  14.5675  14.9456  15.5462  15.8074
    16.2841  18.2443

          k = 0.5188-0.2129 1.0283 (   621 PWs)   bands (ev):

   -85.1783 -83.8903 -45.9083 -45.7425 -45.5850 -44.6111 -44.4572 -44.4378
    12.3442  12.9704  13.3074  14.3592  14.6215  14.9372  15.5160  15.7907
    16.2975  18.2861

          k = 0.5125-0.2382 1.0257 (   623 PWs)   bands (ev):

   -85.1784 -83.8904 -45.9088 -45.7416 -45.5851 -44.6116 -44.4564 -44.4379
    12.3303  12.9753  13.2901  14.3655  14.6668  14.9277  15.4905  15.7798
    16.3074  18.3185

          k = 0.5062-0.2634 1.0232 (   622 PWs)   bands (ev):

   -85.1784 -83.8904 -45.9090 -45.7411 -45.5851 -44.6118 -44.4558 -44.4379
    12.3219  12.9790  13.2791  14.3694  14.6983  14.9196  15.4733  15.7739
    16.3135  18.3392

          k = 0.5000-0.2887 1.0206 (   622 PWs)   bands (ev):

   -85.1784 -83.8904 -45.9091 -45.7409 -45.5851 -44.6119 -44.4557 -44.4379
    12.3191  12.9802  13.2754  14.3707  14.7097  14.9162  15.4672  15.7719
    16.3155  18.3464

     Writing all to output data dir ./outputs/Ni.save/ :
     XML data file, pseudopotentials, collected wavefunctions
 
     init_run     :      0.28s CPU      0.28s WALL (       1 calls)
     electrons    :      4.27s CPU      4.33s WALL (       1 calls)

     Called by init_run:
     wfcinit      :      0.08s CPU      0.08s WALL (       1 calls)
     wfcinit:atom :      0.01s CPU      0.01s WALL (     111 calls)
     wfcinit:wfcr :      0.38s CPU      0.41s WALL (     111 calls)
     potinit      :      0.02s CPU      0.02s WALL (       1 calls)
     hinit0       :      0.17s CPU      0.17s WALL (       1 calls)

     Called by electrons:
     c_bands      :      4.26s CPU      4.33s WALL (       1 calls)
     v_of_rho     :      0.01s CPU      0.01s WALL (       1 calls)
     v_h          :      0.00s CPU      0.00s WALL (       1 calls)
     v_xc         :      0.01s CPU      0.01s WALL (       1 calls)
     newd         :      0.01s CPU      0.01s WALL (       1 calls)

     Called by c_bands:
     init_us_2    :      0.03s CPU      0.03s WALL (     222 calls)
     init_us_2:cp :      0.03s CPU      0.03s WALL (     222 calls)
     cegterg      :      3.70s CPU      3.73s WALL (     115 calls)

     Called by sum_band:

     Called by *egterg:
     cdiaghg      :      0.57s CPU      0.58s WALL (    1715 calls)
     cegterg:over :      0.18s CPU      0.18s WALL (    1604 calls)
     cegterg:upda :      0.08s CPU      0.08s WALL (    1604 calls)
     cegterg:last :      0.19s CPU      0.19s WALL (    1190 calls)
     h_psi        :      2.89s CPU      2.93s WALL (    1830 calls)
     s_psi        :      0.09s CPU      0.09s WALL (    1941 calls)
     g_psi        :      0.03s CPU      0.03s WALL (    1604 calls)

     Called by h_psi:
     h_psi:calbec :      0.09s CPU      0.09s WALL (    1830 calls)
     vloc_psi     :      2.61s CPU      2.65s WALL (    1830 calls)
     add_vuspsi   :      0.08s CPU      0.08s WALL (    1830 calls)
     vhpsi        :      0.09s CPU      0.09s WALL (    1830 calls)

     General routines
     calbec       :      0.15s CPU      0.15s WALL (    3771 calls)
     fft          :      0.00s CPU      0.00s WALL (      21 calls)
     fftw         :      2.01s CPU      2.04s WALL (   49400 calls)
     davcio       :      0.02s CPU      0.02s WALL (     444 calls)
 
     Parallel routines

     Hubbard U routines
     vhpsi        :      0.09s CPU      0.09s WALL (    1830 calls)
 
     PWSCF        :      4.74s CPU      5.09s WALL

 
   This run was terminated on:  17:36:58  22May2025            

=------------------------------------------------------------------------------=
   JOB DONE.
=------------------------------------------------------------------------------=
