
     Program PWSCF v.7.3 starts on 22May2025 at 17:36:59 
        Git branch: HEAD
        Last git commit: 86535f777cf6580630c3ad900c934576e98012c6
        Last git commit date: Fri Dec 15 21:03:38 2023 +0000
        Last git commit subject: Merge branch 'develop' into 'master'

     This program is part of the open-source Quantum ESPRESSO suite
     for quantum simulation of materials; please cite
         "P. Giannozzi et al., J. Phys.:Condens. Matter 21 395502 (2009);
         "P. Giannozzi et al., J. Phys.:Condens. Matter 29 465901 (2017);
         "P. Giannozzi et al., J. Chem. Phys. 152 154105 (2020);
          URL http://www.quantum-espresso.org", 
     in publications or presentations arising from this work. More details at
     http://www.quantum-espresso.org/quote

     Parallel version (MPI), running on     4 processors

     MPI processes distributed on     1 nodes
     31821 MiB available memory on the printing compute node when the environment starts
 
     Waiting for input...
     Reading input from standard input

     Current dimensions of program PWSCF are:
     Max number of different atomic species (ntypx) = 10
     Max number of k-points (npk) =  40000
     Max angular momentum in pseudopotentials (lmaxx) =  4

     Atomic positions and unit cell read from directory:
     ./outputs/Ni.save/
 
     Message from routine setup:
     using ibrav=0 with symmetry is DISCOURAGED, use correct ibrav instead
 
     K-points division:     npool     =       4
     Subspace diagonalization in iterative solution of the eigenvalue problem:
     a serial algorithm will be used

 
     G-vector sticks info
     --------------------
     sticks:   dense  smooth     PW     G-vecs:    dense   smooth      PW
     Sum         479     479    183                 4933     4933    1189
 
     Using Slab Decomposition
 


     bravais-lattice index     =            0
     lattice parameter (alat)  =       9.3691  a.u.
     unit-cell volume          =     145.3870 (a.u.)^3
     number of atoms/cell      =            2
     number of atomic types    =            2
     number of electrons       =        36.00
     number of Kohn-Sham states=           18
     kinetic-energy cutoff     =      40.0000  Ry
     charge density cutoff     =     160.0000  Ry
     Exchange-correlation= SLA  PW   PSX  PSC
                           (   1   4  10   8   0   0   0)
     Hubbard projectors: ortho-atomic
     Hubbard parameters of DFT+U (Dudarev formulation) in eV:
     U(Ni-3d) =  4.0000
     U(Ni1-3d) =  4.0000

     Internal variables: lda_plus_u = T, lda_plus_u_kind = 0

     celldm(1)=   9.369149  celldm(2)=   0.000000  celldm(3)=   0.000000
     celldm(4)=   0.000000  celldm(5)=   0.000000  celldm(6)=   0.000000

     crystal axes: (cart. coord. in units of alat)
               a(1) = (   1.000000   0.000000   0.000000 )  
               a(2) = (   0.250000   0.433013   0.000000 )  
               a(3) = (   0.250000   0.144338   0.408248 )  

     reciprocal axes: (cart. coord. in units 2 pi/alat)
               b(1) = (  1.000000 -0.577350 -0.408248 )  
               b(2) = (  0.000000  2.309401 -0.816497 )  
               b(3) = (  0.000000  0.000000  2.449490 )  


     PseudoPot. # 1 for Ni read from file:
     ./Ni.UPF
     MD5 check sum: de937c0c8ae4b350e69c02b76d8a83cb
     Pseudo is Ultrasoft + core correction, Zval = 18.0
     Generated by new atomic code, or converted to UPF format
     Using radial grid of  865 points,  6 beta functions with: 
                l(1) =   0
                l(2) =   0
                l(3) =   1
                l(4) =   1
                l(5) =   2
                l(6) =   2
     Q(r) pseudized with 10 coefficients,  rinner =    0.980   0.980   0.980
                                                       0.980   0.980

     PseudoPot. # 2 for Ni read from file:
     ./Ni.UPF
     MD5 check sum: de937c0c8ae4b350e69c02b76d8a83cb
     Pseudo is Ultrasoft + core correction, Zval = 18.0
     Generated by new atomic code, or converted to UPF format
     Using radial grid of  865 points,  6 beta functions with: 
                l(1) =   0
                l(2) =   0
                l(3) =   1
                l(4) =   1
                l(5) =   2
                l(6) =   2
     Q(r) pseudized with 10 coefficients,  rinner =    0.980   0.980   0.980
                                                       0.980   0.980

     atomic species   valence    mass     pseudopotential
     Ni               18.00    58.69340     Ni( 1.00)
     Ni1              18.00    58.69340     Ni( 1.00)

     Starting magnetic structure 
     atomic species   magnetization
     Ni              0.100
     Ni1            -0.100

      4 Sym. Ops., with inversion, found


                                    s                        frac. trans.

      isym =  1     identity                                     

 cryst.   s( 1) = (     1          0          0      )
                  (     0          1          0      )
                  (     0          0          1      )

 cart.    s( 1) = (  1.0000000  0.0000000  0.0000000 )
                  (  0.0000000  1.0000000  0.0000000 )
                  (  0.0000000  0.0000000  1.0000000 )


      isym =  2     180 deg rotation - cryst. axis [1,1,0]       

 cryst.   s( 2) = (    -1          2          0      )
                  (     0          1          0      )
                  (     0          1         -1      )

 cart.    s( 2) = ( -0.5000000  0.8660254  0.0000000 )
                  (  0.8660254  0.5000000  0.0000000 )
                  (  0.0000000  0.0000000 -1.0000000 )


      isym =  3     inversion                                    

 cryst.   s( 3) = (    -1          0          0      )
                  (     0         -1          0      )
                  (     0          0         -1      )

 cart.    s( 3) = ( -1.0000000  0.0000000  0.0000000 )
                  (  0.0000000 -1.0000000  0.0000000 )
                  (  0.0000000  0.0000000 -1.0000000 )


      isym =  4     inv. 180 deg rotation - cryst. axis [1,1,0]  

 cryst.   s( 4) = (     1         -2          0      )
                  (     0         -1          0      )
                  (     0         -1          1      )

 cart.    s( 4) = (  0.5000000 -0.8660254 -0.0000000 )
                  ( -0.8660254 -0.5000000 -0.0000000 )
                  (  0.0000000  0.0000000  1.0000000 )


   Cartesian axes

     site n.     atom                  positions (alat units)
         1        Ni     tau(   1) = (   0.0000000   0.0000000   0.0000000  )
         2        Ni1    tau(   2) = (   0.5000000   0.0000000   0.0000000  )

   Crystallographic axes

     site n.     atom                  positions (cryst. coord.)
         1        Ni     tau(   1) = (  0.0000000  0.0000000  0.0000000  )
         2        Ni1    tau(   2) = (  0.5000000  0.0000000  0.0000000  )

     number of k points=   125  Gaussian smearing, width (Ry)=  0.0100
                       cart. coord. in units 2pi/alat
        k(    1) = (   0.0000000   0.0000000   0.0000000), wk =   0.0080000
        k(    2) = (   0.2000000  -0.1154701  -0.0816497), wk =   0.0080000
        k(    3) = (   0.4000000  -0.2309401  -0.1632993), wk =   0.0080000
        k(    4) = (   0.6000000  -0.3464102  -0.2449490), wk =   0.0080000
        k(    5) = (   0.8000000  -0.4618802  -0.3265986), wk =   0.0080000
        k(    6) = (   0.0000000   0.4618802  -0.1632993), wk =   0.0080000
        k(    7) = (   0.2000000   0.3464102  -0.2449490), wk =   0.0080000
        k(    8) = (   0.4000000   0.2309401  -0.3265986), wk =   0.0080000
        k(    9) = (   0.6000000   0.1154701  -0.4082483), wk =   0.0080000
        k(   10) = (   0.8000000   0.0000000  -0.4898979), wk =   0.0080000
        k(   11) = (   0.0000000   0.9237604  -0.3265986), wk =   0.0080000
        k(   12) = (   0.2000000   0.8082904  -0.4082483), wk =   0.0080000
        k(   13) = (   0.4000000   0.6928203  -0.4898979), wk =   0.0080000
        k(   14) = (   0.6000000   0.5773503  -0.5715476), wk =   0.0080000
        k(   15) = (   0.8000000   0.4618802  -0.6531973), wk =   0.0080000
        k(   16) = (   0.0000000   1.3856406  -0.4898979), wk =   0.0080000
        k(   17) = (   0.2000000   1.2701706  -0.5715476), wk =   0.0080000
        k(   18) = (   0.4000000   1.1547005  -0.6531973), wk =   0.0080000
        k(   19) = (   0.6000000   1.0392305  -0.7348469), wk =   0.0080000
        k(   20) = (   0.8000000   0.9237604  -0.8164966), wk =   0.0080000
        k(   21) = (   0.0000000   1.8475209  -0.6531973), wk =   0.0080000
        k(   22) = (   0.2000000   1.7320508  -0.7348469), wk =   0.0080000
        k(   23) = (   0.4000000   1.6165808  -0.8164966), wk =   0.0080000
        k(   24) = (   0.6000000   1.5011107  -0.8981462), wk =   0.0080000
        k(   25) = (   0.8000000   1.3856406  -0.9797959), wk =   0.0080000
        k(   26) = (   0.0000000   0.0000000   0.4898979), wk =   0.0080000
        k(   27) = (   0.2000000  -0.1154701   0.4082483), wk =   0.0080000
        k(   28) = (   0.4000000  -0.2309401   0.3265986), wk =   0.0080000
        k(   29) = (   0.6000000  -0.3464102   0.2449490), wk =   0.0080000
        k(   30) = (   0.8000000  -0.4618802   0.1632993), wk =   0.0080000
        k(   31) = (   0.0000000   0.4618802   0.3265986), wk =   0.0080000
        k(   32) = (   0.2000000   0.3464102   0.2449490), wk =   0.0080000
        k(   33) = (   0.4000000   0.2309401   0.1632993), wk =   0.0080000
        k(   34) = (   0.6000000   0.1154701   0.0816497), wk =   0.0080000
        k(   35) = (   0.8000000   0.0000000   0.0000000), wk =   0.0080000
        k(   36) = (   0.0000000   0.9237604   0.1632993), wk =   0.0080000
        k(   37) = (   0.2000000   0.8082904   0.0816497), wk =   0.0080000
        k(   38) = (   0.4000000   0.6928203   0.0000000), wk =   0.0080000
        k(   39) = (   0.6000000   0.5773503  -0.0816497), wk =   0.0080000
        k(   40) = (   0.8000000   0.4618802  -0.1632993), wk =   0.0080000
        k(   41) = (   0.0000000   1.3856406   0.0000000), wk =   0.0080000
        k(   42) = (   0.2000000   1.2701706  -0.0816497), wk =   0.0080000
        k(   43) = (   0.4000000   1.1547005  -0.1632993), wk =   0.0080000
        k(   44) = (   0.6000000   1.0392305  -0.2449490), wk =   0.0080000
        k(   45) = (   0.8000000   0.9237604  -0.3265986), wk =   0.0080000
        k(   46) = (   0.0000000   1.8475209  -0.1632993), wk =   0.0080000
        k(   47) = (   0.2000000   1.7320508  -0.2449490), wk =   0.0080000
        k(   48) = (   0.4000000   1.6165808  -0.3265986), wk =   0.0080000
        k(   49) = (   0.6000000   1.5011107  -0.4082483), wk =   0.0080000
        k(   50) = (   0.8000000   1.3856406  -0.4898979), wk =   0.0080000
        k(   51) = (   0.0000000   0.0000000   0.9797959), wk =   0.0080000
        k(   52) = (   0.2000000  -0.1154701   0.8981462), wk =   0.0080000
        k(   53) = (   0.4000000  -0.2309401   0.8164966), wk =   0.0080000
        k(   54) = (   0.6000000  -0.3464102   0.7348469), wk =   0.0080000
        k(   55) = (   0.8000000  -0.4618802   0.6531973), wk =   0.0080000
        k(   56) = (   0.0000000   0.4618802   0.8164966), wk =   0.0080000
        k(   57) = (   0.2000000   0.3464102   0.7348469), wk =   0.0080000
        k(   58) = (   0.4000000   0.2309401   0.6531973), wk =   0.0080000
        k(   59) = (   0.6000000   0.1154701   0.5715476), wk =   0.0080000
        k(   60) = (   0.8000000   0.0000000   0.4898979), wk =   0.0080000
        k(   61) = (   0.0000000   0.9237604   0.6531973), wk =   0.0080000
        k(   62) = (   0.2000000   0.8082904   0.5715476), wk =   0.0080000
        k(   63) = (   0.4000000   0.6928203   0.4898979), wk =   0.0080000
        k(   64) = (   0.6000000   0.5773503   0.4082483), wk =   0.0080000
        k(   65) = (   0.8000000   0.4618802   0.3265986), wk =   0.0080000
        k(   66) = (   0.0000000   1.3856406   0.4898979), wk =   0.0080000
        k(   67) = (   0.2000000   1.2701706   0.4082483), wk =   0.0080000
        k(   68) = (   0.4000000   1.1547005   0.3265986), wk =   0.0080000
        k(   69) = (   0.6000000   1.0392305   0.2449490), wk =   0.0080000
        k(   70) = (   0.8000000   0.9237604   0.1632993), wk =   0.0080000
        k(   71) = (   0.0000000   1.8475209   0.3265986), wk =   0.0080000
        k(   72) = (   0.2000000   1.7320508   0.2449490), wk =   0.0080000
        k(   73) = (   0.4000000   1.6165808   0.1632993), wk =   0.0080000
        k(   74) = (   0.6000000   1.5011107   0.0816497), wk =   0.0080000
        k(   75) = (   0.8000000   1.3856406   0.0000000), wk =   0.0080000
        k(   76) = (   0.0000000   0.0000000   1.4696938), wk =   0.0080000
        k(   77) = (   0.2000000  -0.1154701   1.3880442), wk =   0.0080000
        k(   78) = (   0.4000000  -0.2309401   1.3063945), wk =   0.0080000
        k(   79) = (   0.6000000  -0.3464102   1.2247449), wk =   0.0080000
        k(   80) = (   0.8000000  -0.4618802   1.1430952), wk =   0.0080000
        k(   81) = (   0.0000000   0.4618802   1.3063945), wk =   0.0080000
        k(   82) = (   0.2000000   0.3464102   1.2247449), wk =   0.0080000
        k(   83) = (   0.4000000   0.2309401   1.1430952), wk =   0.0080000
        k(   84) = (   0.6000000   0.1154701   1.0614456), wk =   0.0080000
        k(   85) = (   0.8000000   0.0000000   0.9797959), wk =   0.0080000
        k(   86) = (   0.0000000   0.9237604   1.1430952), wk =   0.0080000
        k(   87) = (   0.2000000   0.8082904   1.0614456), wk =   0.0080000
        k(   88) = (   0.4000000   0.6928203   0.9797959), wk =   0.0080000
        k(   89) = (   0.6000000   0.5773503   0.8981462), wk =   0.0080000
        k(   90) = (   0.8000000   0.4618802   0.8164966), wk =   0.0080000
        k(   91) = (   0.0000000   1.3856406   0.9797959), wk =   0.0080000
        k(   92) = (   0.2000000   1.2701706   0.8981462), wk =   0.0080000
        k(   93) = (   0.4000000   1.1547005   0.8164966), wk =   0.0080000
        k(   94) = (   0.6000000   1.0392305   0.7348469), wk =   0.0080000
        k(   95) = (   0.8000000   0.9237604   0.6531973), wk =   0.0080000
        k(   96) = (   0.0000000   1.8475209   0.8164966), wk =   0.0080000
        k(   97) = (   0.2000000   1.7320508   0.7348469), wk =   0.0080000
        k(   98) = (   0.4000000   1.6165808   0.6531973), wk =   0.0080000
        k(   99) = (   0.6000000   1.5011107   0.5715476), wk =   0.0080000
        k(  100) = (   0.8000000   1.3856406   0.4898979), wk =   0.0080000
        k(  101) = (   0.0000000   0.0000000   1.9595918), wk =   0.0080000
        k(  102) = (   0.2000000  -0.1154701   1.8779421), wk =   0.0080000
        k(  103) = (   0.4000000  -0.2309401   1.7962925), wk =   0.0080000
        k(  104) = (   0.6000000  -0.3464102   1.7146428), wk =   0.0080000
        k(  105) = (   0.8000000  -0.4618802   1.6329932), wk =   0.0080000
        k(  106) = (   0.0000000   0.4618802   1.7962925), wk =   0.0080000
        k(  107) = (   0.2000000   0.3464102   1.7146428), wk =   0.0080000
        k(  108) = (   0.4000000   0.2309401   1.6329932), wk =   0.0080000
        k(  109) = (   0.6000000   0.1154701   1.5513435), wk =   0.0080000
        k(  110) = (   0.8000000   0.0000000   1.4696938), wk =   0.0080000
        k(  111) = (   0.0000000   0.9237604   1.6329932), wk =   0.0080000
        k(  112) = (   0.2000000   0.8082904   1.5513435), wk =   0.0080000
        k(  113) = (   0.4000000   0.6928203   1.4696938), wk =   0.0080000
        k(  114) = (   0.6000000   0.5773503   1.3880442), wk =   0.0080000
        k(  115) = (   0.8000000   0.4618802   1.3063945), wk =   0.0080000
        k(  116) = (   0.0000000   1.3856406   1.4696938), wk =   0.0080000
        k(  117) = (   0.2000000   1.2701706   1.3880442), wk =   0.0080000
        k(  118) = (   0.4000000   1.1547005   1.3063945), wk =   0.0080000
        k(  119) = (   0.6000000   1.0392305   1.2247449), wk =   0.0080000
        k(  120) = (   0.8000000   0.9237604   1.1430952), wk =   0.0080000
        k(  121) = (   0.0000000   1.8475209   1.3063945), wk =   0.0080000
        k(  122) = (   0.2000000   1.7320508   1.2247449), wk =   0.0080000
        k(  123) = (   0.4000000   1.6165808   1.1430952), wk =   0.0080000
        k(  124) = (   0.6000000   1.5011107   1.0614456), wk =   0.0080000
        k(  125) = (   0.8000000   1.3856406   0.9797959), wk =   0.0080000

                       cryst. coord.
        k(    1) = (   0.0000000   0.0000000   0.0000000), wk =   0.0080000
        k(    2) = (   0.2000000   0.0000000   0.0000000), wk =   0.0080000
        k(    3) = (   0.4000000   0.0000000   0.0000000), wk =   0.0080000
        k(    4) = (   0.6000000   0.0000000   0.0000000), wk =   0.0080000
        k(    5) = (   0.8000000   0.0000000   0.0000000), wk =   0.0080000
        k(    6) = (   0.0000000   0.2000000   0.0000000), wk =   0.0080000
        k(    7) = (   0.2000000   0.2000000   0.0000000), wk =   0.0080000
        k(    8) = (   0.4000000   0.2000000   0.0000000), wk =   0.0080000
        k(    9) = (   0.6000000   0.2000000   0.0000000), wk =   0.0080000
        k(   10) = (   0.8000000   0.2000000   0.0000000), wk =   0.0080000
        k(   11) = (   0.0000000   0.4000000   0.0000000), wk =   0.0080000
        k(   12) = (   0.2000000   0.4000000   0.0000000), wk =   0.0080000
        k(   13) = (   0.4000000   0.4000000   0.0000000), wk =   0.0080000
        k(   14) = (   0.6000000   0.4000000   0.0000000), wk =   0.0080000
        k(   15) = (   0.8000000   0.4000000   0.0000000), wk =   0.0080000
        k(   16) = (   0.0000000   0.6000000  -0.0000000), wk =   0.0080000
        k(   17) = (   0.2000000   0.6000000   0.0000000), wk =   0.0080000
        k(   18) = (   0.4000000   0.6000000   0.0000000), wk =   0.0080000
        k(   19) = (   0.6000000   0.6000000   0.0000000), wk =   0.0080000
        k(   20) = (   0.8000000   0.6000000  -0.0000000), wk =   0.0080000
        k(   21) = (   0.0000000   0.8000000   0.0000000), wk =   0.0080000
        k(   22) = (   0.2000000   0.8000000   0.0000000), wk =   0.0080000
        k(   23) = (   0.4000000   0.8000000   0.0000000), wk =   0.0080000
        k(   24) = (   0.6000000   0.8000000   0.0000000), wk =   0.0080000
        k(   25) = (   0.8000000   0.8000000   0.0000000), wk =   0.0080000
        k(   26) = (   0.0000000   0.0000000   0.2000000), wk =   0.0080000
        k(   27) = (   0.2000000   0.0000000   0.2000000), wk =   0.0080000
        k(   28) = (   0.4000000   0.0000000   0.2000000), wk =   0.0080000
        k(   29) = (   0.6000000   0.0000000   0.2000000), wk =   0.0080000
        k(   30) = (   0.8000000   0.0000000   0.2000000), wk =   0.0080000
        k(   31) = (   0.0000000   0.2000000   0.2000000), wk =   0.0080000
        k(   32) = (   0.2000000   0.2000000   0.2000000), wk =   0.0080000
        k(   33) = (   0.4000000   0.2000000   0.2000000), wk =   0.0080000
        k(   34) = (   0.6000000   0.2000000   0.2000000), wk =   0.0080000
        k(   35) = (   0.8000000   0.2000000   0.2000000), wk =   0.0080000
        k(   36) = (   0.0000000   0.4000000   0.2000000), wk =   0.0080000
        k(   37) = (   0.2000000   0.4000000   0.2000000), wk =   0.0080000
        k(   38) = (   0.4000000   0.4000000   0.2000000), wk =   0.0080000
        k(   39) = (   0.6000000   0.4000000   0.2000000), wk =   0.0080000
        k(   40) = (   0.8000000   0.4000000   0.2000000), wk =   0.0080000
        k(   41) = (   0.0000000   0.6000000   0.2000000), wk =   0.0080000
        k(   42) = (   0.2000000   0.6000000   0.2000000), wk =   0.0080000
        k(   43) = (   0.4000000   0.6000000   0.2000000), wk =   0.0080000
        k(   44) = (   0.6000000   0.6000000   0.2000000), wk =   0.0080000
        k(   45) = (   0.8000000   0.6000000   0.2000000), wk =   0.0080000
        k(   46) = (   0.0000000   0.8000000   0.2000000), wk =   0.0080000
        k(   47) = (   0.2000000   0.8000000   0.2000000), wk =   0.0080000
        k(   48) = (   0.4000000   0.8000000   0.2000000), wk =   0.0080000
        k(   49) = (   0.6000000   0.8000000   0.2000000), wk =   0.0080000
        k(   50) = (   0.8000000   0.8000000   0.2000000), wk =   0.0080000
        k(   51) = (   0.0000000   0.0000000   0.4000000), wk =   0.0080000
        k(   52) = (   0.2000000   0.0000000   0.4000000), wk =   0.0080000
        k(   53) = (   0.4000000   0.0000000   0.4000000), wk =   0.0080000
        k(   54) = (   0.6000000   0.0000000   0.4000000), wk =   0.0080000
        k(   55) = (   0.8000000   0.0000000   0.4000000), wk =   0.0080000
        k(   56) = (   0.0000000   0.2000000   0.4000000), wk =   0.0080000
        k(   57) = (   0.2000000   0.2000000   0.4000000), wk =   0.0080000
        k(   58) = (   0.4000000   0.2000000   0.4000000), wk =   0.0080000
        k(   59) = (   0.6000000   0.2000000   0.4000000), wk =   0.0080000
        k(   60) = (   0.8000000   0.2000000   0.4000000), wk =   0.0080000
        k(   61) = (   0.0000000   0.4000000   0.4000000), wk =   0.0080000
        k(   62) = (   0.2000000   0.4000000   0.4000000), wk =   0.0080000
        k(   63) = (   0.4000000   0.4000000   0.4000000), wk =   0.0080000
        k(   64) = (   0.6000000   0.4000000   0.4000000), wk =   0.0080000
        k(   65) = (   0.8000000   0.4000000   0.4000000), wk =   0.0080000
        k(   66) = (   0.0000000   0.6000000   0.4000000), wk =   0.0080000
        k(   67) = (   0.2000000   0.6000000   0.4000000), wk =   0.0080000
        k(   68) = (   0.4000000   0.6000000   0.4000000), wk =   0.0080000
        k(   69) = (   0.6000000   0.6000000   0.4000000), wk =   0.0080000
        k(   70) = (   0.8000000   0.6000000   0.4000000), wk =   0.0080000
        k(   71) = (   0.0000000   0.8000000   0.4000000), wk =   0.0080000
        k(   72) = (   0.2000000   0.8000000   0.4000000), wk =   0.0080000
        k(   73) = (   0.4000000   0.8000000   0.4000000), wk =   0.0080000
        k(   74) = (   0.6000000   0.8000000   0.4000000), wk =   0.0080000
        k(   75) = (   0.8000000   0.8000000   0.4000000), wk =   0.0080000
        k(   76) = (   0.0000000   0.0000000   0.6000000), wk =   0.0080000
        k(   77) = (   0.2000000   0.0000000   0.6000000), wk =   0.0080000
        k(   78) = (   0.4000000   0.0000000   0.6000000), wk =   0.0080000
        k(   79) = (   0.6000000   0.0000000   0.6000000), wk =   0.0080000
        k(   80) = (   0.8000000   0.0000000   0.6000000), wk =   0.0080000
        k(   81) = (   0.0000000   0.2000000   0.6000000), wk =   0.0080000
        k(   82) = (   0.2000000   0.2000000   0.6000000), wk =   0.0080000
        k(   83) = (   0.4000000   0.2000000   0.6000000), wk =   0.0080000
        k(   84) = (   0.6000000   0.2000000   0.6000000), wk =   0.0080000
        k(   85) = (   0.8000000   0.2000000   0.6000000), wk =   0.0080000
        k(   86) = (   0.0000000   0.4000000   0.6000000), wk =   0.0080000
        k(   87) = (   0.2000000   0.4000000   0.6000000), wk =   0.0080000
        k(   88) = (   0.4000000   0.4000000   0.6000000), wk =   0.0080000
        k(   89) = (   0.6000000   0.4000000   0.6000000), wk =   0.0080000
        k(   90) = (   0.8000000   0.4000000   0.6000000), wk =   0.0080000
        k(   91) = (   0.0000000   0.6000000   0.6000000), wk =   0.0080000
        k(   92) = (   0.2000000   0.6000000   0.6000000), wk =   0.0080000
        k(   93) = (   0.4000000   0.6000000   0.6000000), wk =   0.0080000
        k(   94) = (   0.6000000   0.6000000   0.6000000), wk =   0.0080000
        k(   95) = (   0.8000000   0.6000000   0.6000000), wk =   0.0080000
        k(   96) = (   0.0000000   0.8000000   0.6000000), wk =   0.0080000
        k(   97) = (   0.2000000   0.8000000   0.6000000), wk =   0.0080000
        k(   98) = (   0.4000000   0.8000000   0.6000000), wk =   0.0080000
        k(   99) = (   0.6000000   0.8000000   0.6000000), wk =   0.0080000
        k(  100) = (   0.8000000   0.8000000   0.6000000), wk =   0.0080000
        k(  101) = (   0.0000000   0.0000000   0.8000000), wk =   0.0080000
        k(  102) = (   0.2000000   0.0000000   0.8000000), wk =   0.0080000
        k(  103) = (   0.4000000   0.0000000   0.8000000), wk =   0.0080000
        k(  104) = (   0.6000000   0.0000000   0.8000000), wk =   0.0080000
        k(  105) = (   0.8000000   0.0000000   0.8000000), wk =   0.0080000
        k(  106) = (   0.0000000   0.2000000   0.8000000), wk =   0.0080000
        k(  107) = (   0.2000000   0.2000000   0.8000000), wk =   0.0080000
        k(  108) = (   0.4000000   0.2000000   0.8000000), wk =   0.0080000
        k(  109) = (   0.6000000   0.2000000   0.8000000), wk =   0.0080000
        k(  110) = (   0.8000000   0.2000000   0.8000000), wk =   0.0080000
        k(  111) = (   0.0000000   0.4000000   0.8000000), wk =   0.0080000
        k(  112) = (   0.2000000   0.4000000   0.8000000), wk =   0.0080000
        k(  113) = (   0.4000000   0.4000000   0.8000000), wk =   0.0080000
        k(  114) = (   0.6000000   0.4000000   0.8000000), wk =   0.0080000
        k(  115) = (   0.8000000   0.4000000   0.8000000), wk =   0.0080000
        k(  116) = (   0.0000000   0.6000000   0.8000000), wk =   0.0080000
        k(  117) = (   0.2000000   0.6000000   0.8000000), wk =   0.0080000
        k(  118) = (   0.4000000   0.6000000   0.8000000), wk =   0.0080000
        k(  119) = (   0.6000000   0.6000000   0.8000000), wk =   0.0080000
        k(  120) = (   0.8000000   0.6000000   0.8000000), wk =   0.0080000
        k(  121) = (   0.0000000   0.8000000   0.8000000), wk =   0.0080000
        k(  122) = (   0.2000000   0.8000000   0.8000000), wk =   0.0080000
        k(  123) = (   0.4000000   0.8000000   0.8000000), wk =   0.0080000
        k(  124) = (   0.6000000   0.8000000   0.8000000), wk =   0.0080000
        k(  125) = (   0.8000000   0.8000000   0.8000000), wk =   0.0080000

     Dense  grid:     4933 G-vectors     FFT dimensions: (  40,  20,  20)

     Dynamical RAM for                 wfc:       0.17 MB

     Dynamical RAM for     wfc (w. buffer):       0.17 MB

     Dynamical RAM for             U proj.:       0.09 MB

     Dynamical RAM for  U proj. (w. buff.):       0.09 MB

     Dynamical RAM for           str. fact:       0.15 MB

     Dynamical RAM for           local pot:       0.00 MB

     Dynamical RAM for          nlocal pot:       0.34 MB

     Dynamical RAM for                qrad:       2.03 MB

     Dynamical RAM for          rho,v,vnew:       1.18 MB

     Dynamical RAM for           G-vectors:       0.32 MB

     Dynamical RAM for          h,s,v(r/c):       0.06 MB

     Dynamical RAM for          <psi|beta>:       0.01 MB

     Dynamical RAM for                 psi:       0.34 MB

     Dynamical RAM for                hpsi:       0.34 MB

     Dynamical RAM for                spsi:       0.34 MB

     Dynamical RAM for      wfcinit/wfcrot:       0.51 MB

     Dynamical RAM for           addusdens:       3.65 MB

     Estimated static dynamical RAM per process >       5.25 MB

     Estimated max dynamical RAM per process >       8.90 MB

     Estimated total dynamical RAM >      35.60 MB

     Check: negative core charge=   -0.000112
     Generating pointlists ...
     new r_m :   0.2063 (alat units)  1.9324 (a.u.) for type    1
     new r_m :   0.2063 (alat units)  1.9324 (a.u.) for type    2

     The potential is recalculated from file :
     ./outputs/Ni.save/charge-density


     HUBBARD ENERGY =    0.2876  (Ry)

     STARTING HUBBARD OCCUPATIONS:

     =================== HUBBARD OCCUPATIONS ===================
     ------------------------ ATOM    1 ------------------------
     Tr[ns(  1)] (up, down, total) =   4.72764  3.75435  8.48199
     Atomic magnetic moment for atom   1 =   0.97329
     SPIN  1
     eigenvalues:
       0.932  0.941  0.942  0.957  0.957
     eigenvectors (columns):
      -0.323  0.000  0.848  0.420  0.000
       0.488  0.074  0.458 -0.550 -0.495
      -0.282  0.128 -0.264  0.317 -0.857
       0.380 -0.857 -0.016  0.324 -0.128
      -0.659 -0.495  0.028 -0.562 -0.074
     occupation matrix ns (before diag.):
       0.943 -0.002  0.001  0.003 -0.006
      -0.002  0.947  0.005 -0.004  0.008
       0.001  0.005  0.953  0.004 -0.004
       0.003 -0.004  0.004  0.942 -0.000
      -0.006  0.008 -0.004 -0.000  0.942
     SPIN  2
     eigenvalues:
       0.489  0.506  0.910  0.924  0.925
     eigenvectors (columns):
       0.921 -0.000  0.346  0.000 -0.181
       0.321  0.184 -0.546  0.465  0.590
      -0.185  0.318  0.315  0.805 -0.341
       0.061 -0.805 -0.347  0.318 -0.355
      -0.106 -0.465  0.601  0.184  0.614
     occupation matrix ns (before diag.):
       0.554 -0.126  0.073 -0.023  0.039
      -0.126  0.861  0.004  0.051  0.055
       0.073  0.004  0.865  0.114  0.051
      -0.023  0.051  0.114  0.650 -0.151
       0.039  0.055  0.051 -0.151  0.824
     ------------------------ ATOM    2 ------------------------
     Tr[ns(  2)] (up, down, total) =   3.75427  4.72762  8.48190
     Atomic magnetic moment for atom   2 =  -0.97335
     SPIN  1
     eigenvalues:
       0.489  0.506  0.910  0.924  0.925
     eigenvectors (columns):
       0.921 -0.000  0.346  0.000 -0.180
       0.321  0.184 -0.546  0.465  0.590
      -0.185  0.319  0.316  0.805 -0.341
       0.061 -0.805 -0.347  0.319 -0.355
      -0.106 -0.465  0.601  0.184  0.614
     occupation matrix ns (before diag.):
       0.554 -0.126  0.073 -0.023  0.039
      -0.126  0.861  0.003  0.051  0.055
       0.073  0.003  0.865  0.114  0.051
      -0.023  0.051  0.114  0.650 -0.151
       0.039  0.055  0.051 -0.151  0.824
     SPIN  2
     eigenvalues:
       0.932  0.941  0.942  0.957  0.957
     eigenvectors (columns):
      -0.322  0.000  0.848 -0.420 -0.000
       0.488  0.073  0.458  0.549  0.495
      -0.282  0.127 -0.264 -0.317  0.857
       0.380 -0.857 -0.016 -0.324  0.127
      -0.658 -0.495  0.028  0.562  0.073
     occupation matrix ns (before diag.):
       0.943 -0.002  0.001  0.003 -0.006
      -0.002  0.947  0.005 -0.004  0.008
       0.001  0.005  0.953  0.004 -0.004
       0.003 -0.004  0.004  0.941 -0.000
      -0.006  0.008 -0.004 -0.000  0.942

     Number of occupied Hubbard levels =   16.9639

     Atomic wfc used for Hubbard projectors are orthogonalized

     Starting wfcs are   26 randomized atomic wfcs

     Band Structure Calculation
     Davidson diagonalization with overlap

     Computing kpt #:     1  of    63 on this pool
     total cpu time spent up to now is        0.6 secs

     Computing kpt #:     2  of    63 on this pool
     total cpu time spent up to now is        0.6 secs

     Computing kpt #:     3  of    63 on this pool
     total cpu time spent up to now is        0.6 secs

     Computing kpt #:     4  of    63 on this pool
     total cpu time spent up to now is        0.7 secs

     Computing kpt #:     5  of    63 on this pool
     total cpu time spent up to now is        0.7 secs

     Computing kpt #:     6  of    63 on this pool
     total cpu time spent up to now is        0.8 secs

     Computing kpt #:     7  of    63 on this pool
     total cpu time spent up to now is        0.8 secs

     Computing kpt #:     8  of    63 on this pool
     total cpu time spent up to now is        0.9 secs

     Computing kpt #:     9  of    63 on this pool
     total cpu time spent up to now is        0.9 secs

     Computing kpt #:    10  of    63 on this pool
     total cpu time spent up to now is        0.9 secs

     Computing kpt #:    11  of    63 on this pool
     total cpu time spent up to now is        1.0 secs

     Computing kpt #:    12  of    63 on this pool
     total cpu time spent up to now is        1.0 secs

     Computing kpt #:    13  of    63 on this pool
     total cpu time spent up to now is        1.1 secs

     Computing kpt #:    14  of    63 on this pool
     total cpu time spent up to now is        1.1 secs

     Computing kpt #:    15  of    63 on this pool
     total cpu time spent up to now is        1.2 secs

     Computing kpt #:    16  of    63 on this pool
     total cpu time spent up to now is        1.2 secs

     Computing kpt #:    17  of    63 on this pool
     total cpu time spent up to now is        1.3 secs

     Computing kpt #:    18  of    63 on this pool
     total cpu time spent up to now is        1.3 secs

     Computing kpt #:    19  of    63 on this pool
     total cpu time spent up to now is        1.4 secs

     Computing kpt #:    20  of    63 on this pool
     total cpu time spent up to now is        1.4 secs

     Computing kpt #:    21  of    63 on this pool
     total cpu time spent up to now is        1.4 secs

     Computing kpt #:    22  of    63 on this pool
     total cpu time spent up to now is        1.5 secs

     Computing kpt #:    23  of    63 on this pool
     total cpu time spent up to now is        1.5 secs

     Computing kpt #:    24  of    63 on this pool
     total cpu time spent up to now is        1.6 secs

     Computing kpt #:    25  of    63 on this pool
     total cpu time spent up to now is        1.6 secs

     Computing kpt #:    26  of    63 on this pool
     total cpu time spent up to now is        1.7 secs

     Computing kpt #:    27  of    63 on this pool
     total cpu time spent up to now is        1.7 secs

     Computing kpt #:    28  of    63 on this pool
     total cpu time spent up to now is        1.7 secs

     Computing kpt #:    29  of    63 on this pool
     total cpu time spent up to now is        1.8 secs

     Computing kpt #:    30  of    63 on this pool
     total cpu time spent up to now is        1.8 secs

     Computing kpt #:    31  of    63 on this pool
     total cpu time spent up to now is        1.9 secs

     Computing kpt #:    32  of    63 on this pool
     total cpu time spent up to now is        1.9 secs

     Computing kpt #:    33  of    63 on this pool
     total cpu time spent up to now is        2.0 secs

     Computing kpt #:    34  of    63 on this pool
     total cpu time spent up to now is        2.0 secs

     Computing kpt #:    35  of    63 on this pool
     total cpu time spent up to now is        2.1 secs

     Computing kpt #:    36  of    63 on this pool
     total cpu time spent up to now is        2.1 secs

     Computing kpt #:    37  of    63 on this pool
     total cpu time spent up to now is        2.2 secs

     Computing kpt #:    38  of    63 on this pool
     total cpu time spent up to now is        2.2 secs

     Computing kpt #:    39  of    63 on this pool
     total cpu time spent up to now is        2.3 secs

     Computing kpt #:    40  of    63 on this pool
     total cpu time spent up to now is        2.3 secs

     Computing kpt #:    41  of    63 on this pool
     total cpu time spent up to now is        2.3 secs

     Computing kpt #:    42  of    63 on this pool
     total cpu time spent up to now is        2.4 secs

     Computing kpt #:    43  of    63 on this pool
     total cpu time spent up to now is        2.4 secs

     Computing kpt #:    44  of    63 on this pool
     total cpu time spent up to now is        2.5 secs

     Computing kpt #:    45  of    63 on this pool
     total cpu time spent up to now is        2.5 secs

     Computing kpt #:    46  of    63 on this pool
     total cpu time spent up to now is        2.6 secs

     Computing kpt #:    47  of    63 on this pool
     total cpu time spent up to now is        2.6 secs

     Computing kpt #:    48  of    63 on this pool
     total cpu time spent up to now is        2.7 secs

     Computing kpt #:    49  of    63 on this pool
     total cpu time spent up to now is        2.7 secs

     Computing kpt #:    50  of    63 on this pool
     total cpu time spent up to now is        2.7 secs

     Computing kpt #:    51  of    63 on this pool
     total cpu time spent up to now is        2.8 secs

     Computing kpt #:    52  of    63 on this pool
     total cpu time spent up to now is        2.8 secs

     Computing kpt #:    53  of    63 on this pool
     total cpu time spent up to now is        2.9 secs

     Computing kpt #:    54  of    63 on this pool
     total cpu time spent up to now is        2.9 secs

     Computing kpt #:    55  of    63 on this pool
     total cpu time spent up to now is        3.0 secs

     Computing kpt #:    56  of    63 on this pool
     total cpu time spent up to now is        3.0 secs

     Computing kpt #:    57  of    63 on this pool
     total cpu time spent up to now is        3.1 secs

     Computing kpt #:    58  of    63 on this pool
     total cpu time spent up to now is        3.1 secs

     Computing kpt #:    59  of    63 on this pool
     total cpu time spent up to now is        3.2 secs

     Computing kpt #:    60  of    63 on this pool
     total cpu time spent up to now is        3.2 secs

     Computing kpt #:    61  of    63 on this pool
     total cpu time spent up to now is        3.3 secs

     Computing kpt #:    62  of    63 on this pool
     total cpu time spent up to now is        3.3 secs

     Computing kpt #:    63  of    63 on this pool
     total cpu time spent up to now is        3.3 secs

     ethr =  2.78E-09,  avg # of iterations = 15.8

     total cpu time spent up to now is        3.3 secs

     End of band structure calculation

 ------ SPIN UP ------------


          k = 0.0000 0.0000 0.0000 (   633 PWs)   bands (ev):

   -85.2000 -83.9189 -45.7325 -45.6947 -45.6161 -44.4534 -44.4280 -44.4126
     8.6810  12.1496  13.8862  13.9008  14.6171  14.8601  14.8677  15.6662
    15.6725  17.4914

     occupation numbers 
     1.0000   1.0000   1.0000   1.0000   1.0000   1.0000   1.0000   1.0000
     1.0000   1.0000   1.0000   1.0000   1.0000   1.0000   1.0000   1.0000
     1.0000   1.0000

          k = 0.2000-0.1155-0.0816 (   630 PWs)   bands (ev):

   -85.1998 -83.9188 -45.7324 -45.6947 -45.6123 -44.4576 -44.4284 -44.4128
     9.0746  12.0834  13.9218  13.9366  14.4872  14.9295  14.9390  15.6060
    15.6128  16.1162

     occupation numbers 
     1.0000   1.0000   1.0000   1.0000   1.0000   1.0000   1.0000   1.0000
     1.0000   1.0000   1.0000   1.0000   1.0000   1.0000   1.0000   1.0000
     1.0000   1.0000

          k = 0.4000-0.2309-0.1633 (   616 PWs)   bands (ev):

   -85.1994 -83.9188 -45.7321 -45.6944 -45.6060 -44.4648 -44.4287 -44.4128
    10.1674  11.4983  13.9838  14.0000  14.0672  14.7940  15.0750  15.0900
    15.4765  15.4864

     occupation numbers 
     1.0000   1.0000   1.0000   1.0000   1.0000   1.0000   1.0000   1.0000
     1.0000   1.0000   1.0000   1.0000   1.0000   1.0000   1.0000   1.0000
     1.0000   1.0000

          k = 0.6000-0.3464-0.2449 (   616 PWs)   bands (ev):

   -85.1994 -83.9188 -45.7321 -45.6944 -45.6060 -44.4648 -44.4287 -44.4128
    10.1674  11.4983  13.9838  14.0000  14.0672  14.7940  15.0750  15.0900
    15.4765  15.4864

     occupation numbers 
     1.0000   1.0000   1.0000   1.0000   1.0000   1.0000   1.0000   1.0000
     1.0000   1.0000   1.0000   1.0000   1.0000   1.0000   1.0000   1.0000
     1.0000   1.0000

          k = 0.8000-0.4619-0.3266 (   630 PWs)   bands (ev):

   -85.1998 -83.9188 -45.7324 -45.6947 -45.6123 -44.4576 -44.4284 -44.4128
     9.0746  12.0834  13.9218  13.9366  14.4872  14.9295  14.9390  15.6060
    15.6128  16.1162

     occupation numbers 
     1.0000   1.0000   1.0000   1.0000   1.0000   1.0000   1.0000   1.0000
     1.0000   1.0000   1.0000   1.0000   1.0000   1.0000   1.0000   1.0000
     1.0000   1.0000

          k = 0.0000 0.4619-0.1633 (   623 PWs)   bands (ev):

   -85.1911 -83.9098 -45.7728 -45.7303 -45.6042 -44.4827 -44.4506 -44.4374
    10.1714  12.7562  13.7160  13.7519  14.3633  14.8056  14.9342  15.5343
    15.9193  16.4730

     occupation numbers 
     1.0000   1.0000   1.0000   1.0000   1.0000   1.0000   1.0000   1.0000
     1.0000   1.0000   1.0000   1.0000   1.0000   1.0000   1.0000   1.0000
     1.0000   1.0000

          k = 0.2000 0.3464-0.2449 (   617 PWs)   bands (ev):

   -85.1911 -83.9098 -45.7722 -45.7301 -45.6046 -44.4832 -44.4497 -44.4376
    10.0624  12.8716  13.6138  13.8892  14.3907  14.8358  14.9121  15.4442
    15.9796  16.3707

     occupation numbers 
     1.0000   1.0000   1.0000   1.0000   1.0000   1.0000   1.0000   1.0000
     1.0000   1.0000   1.0000   1.0000   1.0000   1.0000   1.0000   1.0000
     1.0000   1.0000

          k = 0.4000 0.2309-0.3266 (   611 PWs)   bands (ev):

   -85.1909 -83.9098 -45.7723 -45.7301 -45.6010 -44.4831 -44.4526 -44.4385
    10.6260  12.8504  13.5218  14.0302  14.4648  14.6036  14.9052  15.1823
    16.0066  16.0183

     occupation numbers 
     1.0000   1.0000   1.0000   1.0000   1.0000   1.0000   1.0000   1.0000
     1.0000   1.0000   1.0000   1.0000   1.0000   1.0000   1.0000   1.0000
     1.0000   1.0000

          k = 0.6000 0.1155-0.4082 (   620 PWs)   bands (ev):

   -85.1908 -83.9098 -45.7729 -45.7302 -45.5986 -44.4824 -44.4559 -44.4386
    11.6472  12.1423  13.4697  13.9291  14.3714  14.4921  14.9095  15.1463
    15.9745  16.0487

     occupation numbers 
     1.0000   1.0000   1.0000   1.0000   1.0000   1.0000   1.0000   1.0000
     1.0000   1.0000   1.0000   1.0000   1.0000   1.0000   1.0000   1.0000
     1.0000   1.0000

          k = 0.8000 0.0000-0.4899 (   627 PWs)   bands (ev):

   -85.1909 -83.9099 -45.7732 -45.7304 -45.6006 -44.4820 -44.4545 -44.4381
    10.9528  12.4972  13.4991  13.8933  14.4208  14.5436  14.9386  15.3725
    15.9101  16.3844

     occupation numbers 
     1.0000   1.0000   1.0000   1.0000   1.0000   1.0000   1.0000   1.0000
     1.0000   1.0000   1.0000   1.0000   1.0000   1.0000   1.0000   1.0000
     1.0000   1.0000

          k = 0.0000 0.9238-0.3266 (   627 PWs)   bands (ev):

   -85.1779 -83.8964 -45.8666 -45.7595 -45.5894 -44.5816 -44.4667 -44.4372
    11.9207  12.1744  13.3569  14.4102  14.5575  15.6005  15.8720  16.4669
    16.5395  17.0281

     occupation numbers 
     1.0000   1.0000   1.0000   1.0000   1.0000   1.0000   1.0000   1.0000
     1.0000   1.0000   1.0000   1.0000   1.0000   1.0000   1.0000   1.0000
     1.0000   1.0000

          k = 0.2000 0.8083-0.4082 (   622 PWs)   bands (ev):

   -85.1778 -83.8961 -45.8651 -45.7592 -45.5877 -44.5839 -44.4670 -44.4384
    12.0635  12.5153  13.3121  14.4070  14.5379  15.0920  15.5957  16.1702
    16.4079  16.9648

     occupation numbers 
     1.0000   1.0000   1.0000   1.0000   1.0000   1.0000   1.0000   1.0000
     1.0000   1.0000   1.0000   1.0000   1.0000   1.0000   1.0000   1.0000
     1.0000   1.0000

          k = 0.4000 0.6928-0.4899 (   621 PWs)   bands (ev):

   -85.1776 -83.8958 -45.8643 -45.7589 -45.5856 -44.5853 -44.4674 -44.4407
    12.2957  12.9975  13.1468  14.3261  14.6946  14.7468  15.5135  15.5626
    16.3198  17.3609

     occupation numbers 
     1.0000   1.0000   1.0000   1.0000   1.0000   1.0000   1.0000   1.0000
     1.0000   1.0000   1.0000   1.0000   1.0000   1.0000   1.0000   1.0000
     1.0000   1.0000

          k = 0.6000 0.5774-0.5715 (   620 PWs)   bands (ev):

   -85.1775 -83.8959 -45.8652 -45.7590 -45.5858 -44.5839 -44.4672 -44.4407
    12.2828  12.4641  13.8548  14.0761  14.6350  14.9510  15.5576  15.9046
    16.4232  17.5155

     occupation numbers 
     1.0000   1.0000   1.0000   1.0000   1.0000   1.0000   1.0000   1.0000
     1.0000   1.0000   1.0000   1.0000   1.0000   1.0000   1.0000   1.0000
     1.0000   1.0000

          k = 0.8000 0.4619-0.6532 (   632 PWs)   bands (ev):

   -85.1778 -83.8963 -45.8667 -45.7594 -45.5884 -44.5816 -44.4669 -44.4388
    12.0627  12.1376  13.5900  14.3773  14.4609  15.5023  15.5837  16.5545
    16.7522  18.0529

     occupation numbers 
     1.0000   1.0000   1.0000   1.0000   1.0000   1.0000   1.0000   1.0000
     1.0000   1.0000   1.0000   1.0000   1.0000   1.0000   1.0000   1.0000
     1.0000   1.0000

          k = 0.0000 1.3856-0.4899 (   627 PWs)   bands (ev):

   -85.1779 -83.8964 -45.8666 -45.7595 -45.5894 -44.5816 -44.4667 -44.4372
    11.9207  12.1744  13.3569  14.4102  14.5575  15.6005  15.8720  16.4669
    16.5395  17.0281

     occupation numbers 
     1.0000   1.0000   1.0000   1.0000   1.0000   1.0000   1.0000   1.0000
     1.0000   1.0000   1.0000   1.0000   1.0000   1.0000   1.0000   1.0000
     1.0000   1.0000

          k = 0.2000 1.2702-0.5715 (   632 PWs)   bands (ev):

   -85.1778 -83.8963 -45.8667 -45.7594 -45.5884 -44.5816 -44.4669 -44.4388
    12.0627  12.1376  13.5900  14.3773  14.4609  15.5023  15.5837  16.5545
    16.7522  18.0529

     occupation numbers 
     1.0000   1.0000   1.0000   1.0000   1.0000   1.0000   1.0000   1.0000
     1.0000   1.0000   1.0000   1.0000   1.0000   1.0000   1.0000   1.0000
     1.0000   1.0000

          k = 0.4000 1.1547-0.6532 (   620 PWs)   bands (ev):

   -85.1775 -83.8959 -45.8652 -45.7590 -45.5858 -44.5839 -44.4672 -44.4407
    12.2828  12.4641  13.8548  14.0761  14.6350  14.9510  15.5576  15.9046
    16.4232  17.5155

     occupation numbers 
     1.0000   1.0000   1.0000   1.0000   1.0000   1.0000   1.0000   1.0000
     1.0000   1.0000   1.0000   1.0000   1.0000   1.0000   1.0000   1.0000
     1.0000   1.0000

          k = 0.6000 1.0392-0.7348 (   621 PWs)   bands (ev):

   -85.1776 -83.8958 -45.8643 -45.7589 -45.5856 -44.5853 -44.4674 -44.4407
    12.2957  12.9975  13.1468  14.3261  14.6946  14.7468  15.5135  15.5626
    16.3198  17.3609

     occupation numbers 
     1.0000   1.0000   1.0000   1.0000   1.0000   1.0000   1.0000   1.0000
     1.0000   1.0000   1.0000   1.0000   1.0000   1.0000   1.0000   1.0000
     1.0000   1.0000

          k = 0.8000 0.9238-0.8165 (   622 PWs)   bands (ev):

   -85.1778 -83.8961 -45.8651 -45.7592 -45.5877 -44.5839 -44.4670 -44.4384
    12.0635  12.5153  13.3121  14.4070  14.5379  15.0920  15.5957  16.1702
    16.4079  16.9648

     occupation numbers 
     1.0000   1.0000   1.0000   1.0000   1.0000   1.0000   1.0000   1.0000
     1.0000   1.0000   1.0000   1.0000   1.0000   1.0000   1.0000   1.0000
     1.0000   1.0000

          k = 0.0000 1.8475-0.6532 (   623 PWs)   bands (ev):

   -85.1911 -83.9098 -45.7728 -45.7303 -45.6042 -44.4827 -44.4506 -44.4374
    10.1714  12.7562  13.7160  13.7519  14.3633  14.8056  14.9342  15.5343
    15.9193  16.4730

     occupation numbers 
     1.0000   1.0000   1.0000   1.0000   1.0000   1.0000   1.0000   1.0000
     1.0000   1.0000   1.0000   1.0000   1.0000   1.0000   1.0000   1.0000
     1.0000   1.0000

          k = 0.2000 1.7321-0.7348 (   627 PWs)   bands (ev):

   -85.1909 -83.9099 -45.7732 -45.7304 -45.6006 -44.4820 -44.4545 -44.4381
    10.9528  12.4972  13.4991  13.8933  14.4208  14.5436  14.9386  15.3725
    15.9101  16.3844

     occupation numbers 
     1.0000   1.0000   1.0000   1.0000   1.0000   1.0000   1.0000   1.0000
     1.0000   1.0000   1.0000   1.0000   1.0000   1.0000   1.0000   1.0000
     1.0000   1.0000

          k = 0.4000 1.6166-0.8165 (   620 PWs)   bands (ev):

   -85.1908 -83.9098 -45.7729 -45.7302 -45.5986 -44.4824 -44.4559 -44.4386
    11.6472  12.1423  13.4697  13.9291  14.3714  14.4921  14.9095  15.1463
    15.9745  16.0487

     occupation numbers 
     1.0000   1.0000   1.0000   1.0000   1.0000   1.0000   1.0000   1.0000
     1.0000   1.0000   1.0000   1.0000   1.0000   1.0000   1.0000   1.0000
     1.0000   1.0000

          k = 0.6000 1.5011-0.8981 (   611 PWs)   bands (ev):

   -85.1909 -83.9098 -45.7723 -45.7301 -45.6010 -44.4831 -44.4526 -44.4385
    10.6260  12.8504  13.5218  14.0302  14.4648  14.6036  14.9052  15.1823
    16.0066  16.0183

     occupation numbers 
     1.0000   1.0000   1.0000   1.0000   1.0000   1.0000   1.0000   1.0000
     1.0000   1.0000   1.0000   1.0000   1.0000   1.0000   1.0000   1.0000
     1.0000   1.0000

          k = 0.8000 1.3856-0.9798 (   617 PWs)   bands (ev):

   -85.1911 -83.9098 -45.7722 -45.7301 -45.6046 -44.4832 -44.4497 -44.4376
    10.0624  12.8716  13.6138  13.8892  14.3907  14.8358  14.9121  15.4442
    15.9796  16.3707

     occupation numbers 
     1.0000   1.0000   1.0000   1.0000   1.0000   1.0000   1.0000   1.0000
     1.0000   1.0000   1.0000   1.0000   1.0000   1.0000   1.0000   1.0000
     1.0000   1.0000

          k = 0.0000 0.0000 0.4899 (   623 PWs)   bands (ev):

   -85.1911 -83.9098 -45.7926 -45.7098 -45.6049 -44.4953 -44.4469 -44.4283
    10.1720  12.7654  13.7073  13.7264  14.3838  14.8128  14.9334  15.5417
    15.9151  16.4905

     occupation numbers 
     1.0000   1.0000   1.0000   1.0000   1.0000   1.0000   1.0000   1.0000
     1.0000   1.0000   1.0000   1.0000   1.0000   1.0000   1.0000   1.0000
     1.0000   1.0000

          k = 0.2000-0.1155 0.4082 (   617 PWs)   bands (ev):

   -85.1911 -83.9098 -45.7925 -45.7095 -45.6049 -44.4949 -44.4471 -44.4284
    10.0627  12.8781  13.5967  13.8783  14.4087  14.8360  14.9146  15.4420
    15.9762  16.4093

     occupation numbers 
     1.0000   1.0000   1.0000   1.0000   1.0000   1.0000   1.0000   1.0000
     1.0000   1.0000   1.0000   1.0000   1.0000   1.0000   1.0000   1.0000
     1.0000   1.0000

          k = 0.4000-0.2309 0.3266 (   611 PWs)   bands (ev):

   -85.1909 -83.9098 -45.7930 -45.7093 -45.6010 -44.4939 -44.4517 -44.4286
    10.6263  12.8525  13.5020  14.0324  14.4817  14.5966  14.9116  15.1807
    16.0096  16.0478

     occupation numbers 
     1.0000   1.0000   1.0000   1.0000   1.0000   1.0000   1.0000   1.0000
     1.0000   1.0000   1.0000   1.0000   1.0000   1.0000   1.0000   1.0000
     1.0000   1.0000

          k = 0.6000-0.3464 0.2449 (   620 PWs)   bands (ev):

   -85.1907 -83.9098 -45.7935 -45.7095 -45.5987 -44.4936 -44.4547 -44.4286
    11.6482  12.1414  13.4554  13.9304  14.3703  14.5120  14.9127  15.1533
    15.9707  16.0530

     occupation numbers 
     1.0000   1.0000   1.0000   1.0000   1.0000   1.0000   1.0000   1.0000
     1.0000   1.0000   1.0000   1.0000   1.0000   1.0000   1.0000   1.0000
     1.0000   1.0000

          k = 0.8000-0.4619 0.1633 (   627 PWs)   bands (ev):

   -85.1909 -83.9099 -45.7932 -45.7098 -45.6012 -44.4946 -44.4516 -44.4284
    10.9530  12.5047  13.4811  13.8791  14.4427  14.5557  14.9378  15.3869
    15.9052  16.3718

     occupation numbers 
     1.0000   1.0000   1.0000   1.0000   1.0000   1.0000   1.0000   1.0000
     1.0000   1.0000   1.0000   1.0000   1.0000   1.0000   1.0000   1.0000
     1.0000   1.0000

          k = 0.0000 0.4619 0.3266 (   611 PWs)   bands (ev):

   -85.1909 -83.9098 -45.7723 -45.7301 -45.6010 -44.4831 -44.4526 -44.4385
    10.6260  12.8504  13.5218  14.0302  14.4648  14.6036  14.9052  15.1823
    16.0066  16.0183

     occupation numbers 
     1.0000   1.0000   1.0000   1.0000   1.0000   1.0000   1.0000   1.0000
     1.0000   1.0000   1.0000   1.0000   1.0000   1.0000   1.0000   1.0000
     1.0000   1.0000

          k = 0.2000 0.3464 0.2449 (   617 PWs)   bands (ev):

   -85.1911 -83.9098 -45.7722 -45.7301 -45.6046 -44.4832 -44.4497 -44.4376
    10.0624  12.8716  13.6138  13.8892  14.3907  14.8358  14.9121  15.4442
    15.9796  16.3707

     occupation numbers 
     1.0000   1.0000   1.0000   1.0000   1.0000   1.0000   1.0000   1.0000
     1.0000   1.0000   1.0000   1.0000   1.0000   1.0000   1.0000   1.0000
     1.0000   1.0000

          k = 0.4000 0.2309 0.1633 (   623 PWs)   bands (ev):

   -85.1911 -83.9098 -45.7728 -45.7303 -45.6042 -44.4827 -44.4506 -44.4374
    10.1714  12.7562  13.7160  13.7519  14.3633  14.8056  14.9342  15.5343
    15.9193  16.4730

     occupation numbers 
     1.0000   1.0000   1.0000   1.0000   1.0000   1.0000   1.0000   1.0000
     1.0000   1.0000   1.0000   1.0000   1.0000   1.0000   1.0000   1.0000
     1.0000   1.0000

          k = 0.6000 0.1155 0.0816 (   627 PWs)   bands (ev):

   -85.1909 -83.9099 -45.7732 -45.7304 -45.6006 -44.4820 -44.4545 -44.4381
    10.9528  12.4972  13.4991  13.8933  14.4208  14.5436  14.9386  15.3725
    15.9101  16.3844

     occupation numbers 
     1.0000   1.0000   1.0000   1.0000   1.0000   1.0000   1.0000   1.0000
     1.0000   1.0000   1.0000   1.0000   1.0000   1.0000   1.0000   1.0000
     1.0000   1.0000

          k = 0.8000 0.0000 0.0000 (   620 PWs)   bands (ev):

   -85.1908 -83.9098 -45.7729 -45.7302 -45.5986 -44.4824 -44.4559 -44.4386
    11.6472  12.1423  13.4697  13.9291  14.3714  14.4921  14.9095  15.1463
    15.9745  16.0487

     occupation numbers 
     1.0000   1.0000   1.0000   1.0000   1.0000   1.0000   1.0000   1.0000
     1.0000   1.0000   1.0000   1.0000   1.0000   1.0000   1.0000   1.0000
     1.0000   1.0000

          k = 0.0000 0.9238 0.1633 (   627 PWs)   bands (ev):

   -85.1799 -83.8986 -45.8205 -45.7823 -45.5899 -44.5416 -44.4839 -44.4420
    12.3857  13.0887  13.1757  13.8265  14.2209  15.0114  15.2286  16.1967
    16.4471  16.7159

     occupation numbers 
     1.0000   1.0000   1.0000   1.0000   1.0000   1.0000   1.0000   1.0000
     1.0000   1.0000   1.0000   1.0000   1.0000   1.0000   1.0000   1.0000
     1.0000   1.0000

          k = 0.2000 0.8083 0.0816 (   617 PWs)   bands (ev):

   -85.1799 -83.8985 -45.8192 -45.7826 -45.5900 -44.5433 -44.4832 -44.4412
    12.2483  13.0698  13.2206  13.7486  14.2684  15.1428  15.2310  15.7642
    16.2876  16.6889

     occupation numbers 
     1.0000   1.0000   1.0000   1.0000   1.0000   1.0000   1.0000   1.0000
     1.0000   1.0000   1.0000   1.0000   1.0000   1.0000   1.0000   1.0000
     1.0000   1.0000

          k = 0.4000 0.6928 0.0000 (   621 PWs)   bands (ev):

   -85.1800 -83.8984 -45.8185 -45.7829 -45.5905 -44.5444 -44.4829 -44.4409
    12.1565  13.0729  13.2500  13.6671  14.3665  15.0970  15.4566  15.5188
    16.0143  16.7432

     occupation numbers 
     1.0000   1.0000   1.0000   1.0000   1.0000   1.0000   1.0000   1.0000
     1.0000   1.0000   1.0000   1.0000   1.0000   1.0000   1.0000   1.0000
     1.0000   1.0000

          k = 0.6000 0.5774-0.0816 (   617 PWs)   bands (ev):

   -85.1799 -83.8985 -45.8192 -45.7826 -45.5900 -44.5433 -44.4832 -44.4412
    12.2483  13.0698  13.2206  13.7486  14.2684  15.1428  15.2310  15.7642
    16.2876  16.6889

     occupation numbers 
     1.0000   1.0000   1.0000   1.0000   1.0000   1.0000   1.0000   1.0000
     1.0000   1.0000   1.0000   1.0000   1.0000   1.0000   1.0000   1.0000
     1.0000   1.0000

          k = 0.8000 0.4619-0.1633 (   627 PWs)   bands (ev):

   -85.1799 -83.8986 -45.8205 -45.7823 -45.5899 -44.5416 -44.4839 -44.4420
    12.3857  13.0887  13.1757  13.8265  14.2209  15.0114  15.2286  16.1967
    16.4471  16.7159

     occupation numbers 
     1.0000   1.0000   1.0000   1.0000   1.0000   1.0000   1.0000   1.0000
     1.0000   1.0000   1.0000   1.0000   1.0000   1.0000   1.0000   1.0000
     1.0000   1.0000

          k = 0.0000 1.3856 0.0000 (   613 PWs)   bands (ev):

   -85.1733 -83.8917 -45.8633 -45.7995 -45.5834 -44.5790 -44.5098 -44.4357
    12.5283  12.7498  13.7706  13.8352  14.3092  14.9946  15.9071  16.4566
    16.4853  17.4993

     occupation numbers 
     1.0000   1.0000   1.0000   1.0000   1.0000   1.0000   1.0000   1.0000
     1.0000   1.0000   1.0000   1.0000   1.0000   1.0000   1.0000   1.0000
     1.0000   1.0000

          k = 0.2000 1.2702-0.0816 (   620 PWs)   bands (ev):

   -85.1733 -83.8919 -45.8643 -45.7994 -45.5843 -44.5776 -44.5102 -44.4351
    12.3566  12.6536  13.7349  13.8487  14.4573  14.9485  15.9898  16.6229
    17.0685  17.1024

     occupation numbers 
     1.0000   1.0000   1.0000   1.0000   1.0000   1.0000   1.0000   1.0000
     1.0000   1.0000   1.0000   1.0000   1.0000   1.0000   1.0000   1.0000
     1.0000   1.0000

          k = 0.4000 1.1547-0.1633 (   613 PWs)   bands (ev):

   -85.1733 -83.8917 -45.8638 -45.7991 -45.5832 -44.5786 -44.5100 -44.4360
    12.5219  12.7486  13.7748  13.8459  14.3127  14.9953  15.9060  16.4331
    16.4810  17.5167

     occupation numbers 
     1.0000   1.0000   1.0000   1.0000   1.0000   1.0000   1.0000   1.0000
     1.0000   1.0000   1.0000   1.0000   1.0000   1.0000   1.0000   1.0000
     1.0000   1.0000

          k = 0.6000 1.0392-0.2449 (   614 PWs)   bands (ev):

   -85.1732 -83.8915 -45.8625 -45.7993 -45.5818 -44.5806 -44.5097 -44.4374
    12.8989  13.0045  13.5840  13.7778  14.1833  15.0429  15.8203  15.9414
    16.2783  17.6357

     occupation numbers 
     1.0000   1.0000   1.0000   1.0000   1.0000   1.0000   1.0000   1.0000
     1.0000   1.0000   1.0000   1.0000   1.0000   1.0000   1.0000   1.0000
     1.0000   1.0000

          k = 0.8000 0.9238-0.3266 (   614 PWs)   bands (ev):

   -85.1732 -83.8915 -45.8622 -45.7996 -45.5819 -44.5809 -44.5096 -44.4372
    12.9065  13.0065  13.5848  13.7610  14.1801  15.0440  15.8234  15.9478
    16.2841  17.6285

     occupation numbers 
     1.0000   1.0000   1.0000   1.0000   1.0000   1.0000   1.0000   1.0000
     1.0000   1.0000   1.0000   1.0000   1.0000   1.0000   1.0000   1.0000
     1.0000   1.0000

          k = 0.0000 1.8475-0.1633 (   621 PWs)   bands (ev):

   -85.1800 -83.8984 -45.8486 -45.7522 -45.5910 -44.5579 -44.4699 -44.4404
    12.1569  13.0749  13.2261  13.6796  14.3795  15.1027  15.4583  15.5097
    16.0460  16.7343

     occupation numbers 
     1.0000   1.0000   1.0000   1.0000   1.0000   1.0000   1.0000   1.0000
     1.0000   1.0000   1.0000   1.0000   1.0000   1.0000   1.0000   1.0000
     1.0000   1.0000

          k = 0.2000 1.7321-0.2449 (   617 PWs)   bands (ev):

   -85.1799 -83.8984 -45.8494 -45.7521 -45.5903 -44.5568 -44.4696 -44.4413
    12.2454  13.0698  13.2001  13.7667  14.2781  15.1544  15.2249  15.7608
    16.3198  16.6816

     occupation numbers 
     1.0000   1.0000   1.0000   1.0000   1.0000   1.0000   1.0000   1.0000
     1.0000   1.0000   1.0000   1.0000   1.0000   1.0000   1.0000   1.0000
     1.0000   1.0000

          k = 0.4000 1.6166-0.3266 (   627 PWs)   bands (ev):

   -85.1798 -83.8986 -45.8506 -45.7521 -45.5899 -44.5551 -44.4696 -44.4428
    12.3724  13.0869  13.1720  13.8481  14.2354  15.0031  15.2375  16.1918
    16.4479  16.7299

     occupation numbers 
     1.0000   1.0000   1.0000   1.0000   1.0000   1.0000   1.0000   1.0000
     1.0000   1.0000   1.0000   1.0000   1.0000   1.0000   1.0000   1.0000
     1.0000   1.0000

          k = 0.6000 1.5011-0.4082 (   627 PWs)   bands (ev):

   -85.1798 -83.8986 -45.8506 -45.7520 -45.5900 -44.5552 -44.4697 -44.4426
    12.3716  13.0908  13.1712  13.8436  14.2428  15.0046  15.2383  16.1934
    16.4446  16.7051

     occupation numbers 
     1.0000   1.0000   1.0000   1.0000   1.0000   1.0000   1.0000   1.0000
     1.0000   1.0000   1.0000   1.0000   1.0000   1.0000   1.0000   1.0000
     1.0000   1.0000

          k = 0.8000 1.3856-0.4899 (   617 PWs)   bands (ev):

   -85.1799 -83.8984 -45.8494 -45.7519 -45.5905 -44.5569 -44.4697 -44.4411
    12.2441  13.0745  13.2026  13.7611  14.2841  15.1514  15.2344  15.7551
    16.3004  16.6805

     occupation numbers 
     1.0000   1.0000   1.0000   1.0000   1.0000   1.0000   1.0000   1.0000
     1.0000   1.0000   1.0000   1.0000   1.0000   1.0000   1.0000   1.0000
     1.0000   1.0000

          k = 0.0000 0.0000 0.9798 (   627 PWs)   bands (ev):

   -85.1778 -83.8964 -45.8913 -45.7342 -45.5899 -44.5942 -44.4536 -44.4377
    11.9111  12.1786  13.3645  14.4301  14.5633  15.6011  15.8583  16.4606
    16.5418  17.0494

     occupation numbers 
     1.0000   1.0000   1.0000   1.0000   1.0000   1.0000   1.0000   1.0000
     1.0000   1.0000   1.0000   1.0000   1.0000   1.0000   1.0000   1.0000
     1.0000   1.0000

          k = 0.2000-0.1155 0.8981 (   622 PWs)   bands (ev):

   -85.1778 -83.8960 -45.8899 -45.7339 -45.5882 -44.5965 -44.4539 -44.4390
    12.0591  12.5173  13.3124  14.4102  14.5598  15.0772  15.5945  16.1931
    16.4109  16.9681

     occupation numbers 
     1.0000   1.0000   1.0000   1.0000   1.0000   1.0000   1.0000   1.0000
     1.0000   1.0000   1.0000   1.0000   1.0000   1.0000   1.0000   1.0000
     1.0000   1.0000

          k = 0.4000-0.2309 0.8165 (   621 PWs)   bands (ev):

   -85.1776 -83.8958 -45.8892 -45.7336 -45.5859 -44.5977 -44.4542 -44.4416
    12.2960  12.9845  13.1503  14.3240  14.7191  14.7369  15.5465  15.5619
    16.3214  17.3638

     occupation numbers 
     1.0000   1.0000   1.0000   1.0000   1.0000   1.0000   1.0000   1.0000
     1.0000   1.0000   1.0000   1.0000   1.0000   1.0000   1.0000   1.0000
     1.0000   1.0000

          k = 0.6000-0.3464 0.7348 (   620 PWs)   bands (ev):

   -85.1775 -83.8959 -45.8902 -45.7337 -45.5861 -44.5961 -44.4541 -44.4417
    12.2878  12.4477  13.8578  14.0854  14.6574  14.9392  15.5599  15.9292
    16.4244  17.5174

     occupation numbers 
     1.0000   1.0000   1.0000   1.0000   1.0000   1.0000   1.0000   1.0000
     1.0000   1.0000   1.0000   1.0000   1.0000   1.0000   1.0000   1.0000
     1.0000   1.0000

          k = 0.8000-0.4619 0.6532 (   632 PWs)   bands (ev):

   -85.1777 -83.8963 -45.8916 -45.7340 -45.5889 -44.5940 -44.4537 -44.4395
    12.0477  12.1436  13.6019  14.3828  14.4807  15.4919  15.5853  16.5566
    16.7653  18.0518

     occupation numbers 
     1.0000   1.0000   1.0000   1.0000   1.0000   1.0000   1.0000   1.0000
     1.0000   1.0000   1.0000   1.0000   1.0000   1.0000   1.0000   1.0000
     1.0000   1.0000

          k = 0.0000 0.4619 0.8165 (   627 PWs)   bands (ev):

   -85.1798 -83.8986 -45.8506 -45.7520 -45.5900 -44.5552 -44.4697 -44.4426
    12.3716  13.0908  13.1712  13.8436  14.2428  15.0046  15.2383  16.1934
    16.4446  16.7051

     occupation numbers 
     1.0000   1.0000   1.0000   1.0000   1.0000   1.0000   1.0000   1.0000
     1.0000   1.0000   1.0000   1.0000   1.0000   1.0000   1.0000   1.0000
     1.0000   1.0000

          k = 0.2000 0.3464 0.7348 (   617 PWs)   bands (ev):

   -85.1799 -83.8984 -45.8494 -45.7519 -45.5905 -44.5569 -44.4697 -44.4411
    12.2441  13.0745  13.2026  13.7611  14.2841  15.1514  15.2344  15.7551
    16.3004  16.6805

     occupation numbers 
     1.0000   1.0000   1.0000   1.0000   1.0000   1.0000   1.0000   1.0000
     1.0000   1.0000   1.0000   1.0000   1.0000   1.0000   1.0000   1.0000
     1.0000   1.0000

          k = 0.4000 0.2309 0.6532 (   621 PWs)   bands (ev):

   -85.1800 -83.8984 -45.8486 -45.7522 -45.5910 -44.5579 -44.4699 -44.4404
    12.1569  13.0749  13.2261  13.6796  14.3795  15.1027  15.4583  15.5097
    16.0460  16.7343

     occupation numbers 
     1.0000   1.0000   1.0000   1.0000   1.0000   1.0000   1.0000   1.0000
     1.0000   1.0000   1.0000   1.0000   1.0000   1.0000   1.0000   1.0000
     1.0000   1.0000

          k = 0.6000 0.1155 0.5715 (   617 PWs)   bands (ev):

   -85.1799 -83.8984 -45.8494 -45.7521 -45.5903 -44.5568 -44.4696 -44.4413
    12.2454  13.0698  13.2001  13.7667  14.2781  15.1544  15.2249  15.7608
    16.3198  16.6816

     occupation numbers 
     1.0000   1.0000   1.0000   1.0000   1.0000   1.0000   1.0000   1.0000
     1.0000   1.0000   1.0000   1.0000   1.0000   1.0000   1.0000   1.0000
     1.0000   1.0000

          k = 0.8000 0.0000 0.4899 (   627 PWs)   bands (ev):

   -85.1798 -83.8986 -45.8506 -45.7521 -45.5899 -44.5551 -44.4696 -44.4428
    12.3724  13.0869  13.1720  13.8481  14.2354  15.0031  15.2375  16.1918
    16.4479  16.7299

     occupation numbers 
     1.0000   1.0000   1.0000   1.0000   1.0000   1.0000   1.0000   1.0000
     1.0000   1.0000   1.0000   1.0000   1.0000   1.0000   1.0000   1.0000
     1.0000   1.0000

          k = 0.0000 0.9238 0.6532 (   632 PWs)   bands (ev):

   -85.1778 -83.8963 -45.8667 -45.7594 -45.5884 -44.5816 -44.4669 -44.4388
    12.0627  12.1376  13.5900  14.3773  14.4609  15.5023  15.5837  16.5545
    16.7522  18.0529

     occupation numbers 
     1.0000   1.0000   1.0000   1.0000   1.0000   1.0000   1.0000   1.0000
     1.0000   1.0000   1.0000   1.0000   1.0000   1.0000   1.0000   1.0000
     1.0000   1.0000

          k = 0.2000 0.8083 0.5715 (   620 PWs)   bands (ev):

   -85.1775 -83.8959 -45.8652 -45.7590 -45.5858 -44.5839 -44.4672 -44.4407
    12.2828  12.4641  13.8548  14.0761  14.6350  14.9510  15.5576  15.9046
    16.4232  17.5155

     occupation numbers 
     1.0000   1.0000   1.0000   1.0000   1.0000   1.0000   1.0000   1.0000
     1.0000   1.0000   1.0000   1.0000   1.0000   1.0000   1.0000   1.0000
     1.0000   1.0000

          k = 0.4000 0.6928 0.4899 (   621 PWs)   bands (ev):

   -85.1776 -83.8958 -45.8643 -45.7589 -45.5856 -44.5853 -44.4674 -44.4407
    12.2957  12.9975  13.1468  14.3261  14.6946  14.7468  15.5135  15.5626
    16.3198  17.3609

     occupation numbers 
     1.0000   1.0000   1.0000   1.0000   1.0000   1.0000   1.0000   1.0000
     1.0000   1.0000   1.0000   1.0000   1.0000   1.0000   1.0000   1.0000
     1.0000   1.0000

          k = 0.6000 0.5774 0.4082 (   622 PWs)   bands (ev):

   -85.1778 -83.8961 -45.8651 -45.7592 -45.5877 -44.5839 -44.4670 -44.4384
    12.0635  12.5153  13.3121  14.4070  14.5379  15.0920  15.5957  16.1702
    16.4079  16.9648

     occupation numbers 
     1.0000   1.0000   1.0000   1.0000   1.0000   1.0000   1.0000   1.0000
     1.0000   1.0000   1.0000   1.0000   1.0000   1.0000   1.0000   1.0000
     1.0000   1.0000

          k = 0.8000 0.4619 0.3266 (   627 PWs)   bands (ev):

   -85.1779 -83.8964 -45.8666 -45.7595 -45.5894 -44.5816 -44.4667 -44.4372
    11.9207  12.1744  13.3569  14.4102  14.5575  15.6005  15.8720  16.4669
    16.5395  17.0281

     occupation numbers 
     1.0000   1.0000   1.0000   1.0000   1.0000   1.0000   1.0000   1.0000
     1.0000   1.0000   1.0000   1.0000   1.0000   1.0000   1.0000   1.0000
     1.0000   1.0000

          k = 0.0000 1.3856 0.4899 (   620 PWs)   bands (ev):

   -85.1733 -83.8919 -45.8643 -45.7994 -45.5843 -44.5776 -44.5102 -44.4351
    12.3566  12.6536  13.7349  13.8487  14.4573  14.9485  15.9898  16.6229
    17.0685  17.1024

     occupation numbers 
     1.0000   1.0000   1.0000   1.0000   1.0000   1.0000   1.0000   1.0000
     1.0000   1.0000   1.0000   1.0000   1.0000   1.0000   1.0000   1.0000
     1.0000   1.0000

          k = 0.2000 1.2702 0.4082 (   613 PWs)   bands (ev):

   -85.1733 -83.8917 -45.8633 -45.7995 -45.5834 -44.5790 -44.5098 -44.4357
    12.5283  12.7498  13.7706  13.8352  14.3092  14.9946  15.9071  16.4566
    16.4853  17.4993

     occupation numbers 
     1.0000   1.0000   1.0000   1.0000   1.0000   1.0000   1.0000   1.0000
     1.0000   1.0000   1.0000   1.0000   1.0000   1.0000   1.0000   1.0000
     1.0000   1.0000

          k = 0.4000 1.1547 0.3266 (   614 PWs)   bands (ev):

   -85.1732 -83.8915 -45.8622 -45.7996 -45.5819 -44.5809 -44.5096 -44.4372
    12.9065  13.0065  13.5848  13.7610  14.1801  15.0440  15.8234  15.9478
    16.2841  17.6285

     occupation numbers 
     1.0000   1.0000   1.0000   1.0000   1.0000   1.0000   1.0000   1.0000
     1.0000   1.0000   1.0000   1.0000   1.0000   1.0000   1.0000   1.0000
     1.0000   1.0000

          k = 0.6000 1.0392 0.2449 (   614 PWs)   bands (ev):

   -85.1732 -83.8915 -45.8625 -45.7993 -45.5818 -44.5806 -44.5097 -44.4374
    12.8989  13.0045  13.5840  13.7778  14.1833  15.0429  15.8203  15.9414
    16.2783  17.6357

     occupation numbers 
     1.0000   1.0000   1.0000   1.0000   1.0000   1.0000   1.0000   1.0000
     1.0000   1.0000   1.0000   1.0000   1.0000   1.0000   1.0000   1.0000
     1.0000   1.0000

          k = 0.8000 0.9238 0.1633 (   613 PWs)   bands (ev):

   -85.1733 -83.8917 -45.8638 -45.7991 -45.5832 -44.5786 -44.5100 -44.4360
    12.5219  12.7486  13.7748  13.8459  14.3127  14.9953  15.9060  16.4331
    16.4810  17.5167

     occupation numbers 
     1.0000   1.0000   1.0000   1.0000   1.0000   1.0000   1.0000   1.0000
     1.0000   1.0000   1.0000   1.0000   1.0000   1.0000   1.0000   1.0000
     1.0000   1.0000

          k = 0.0000 1.8475 0.3266 (   613 PWs)   bands (ev):

   -85.1732 -83.8917 -45.8867 -45.7759 -45.5835 -44.5909 -44.4977 -44.4360
    12.5072  12.7541  13.7882  13.8478  14.3171  14.9995  15.9026  16.4376
    16.4951  17.4904

     occupation numbers 
     1.0000   1.0000   1.0000   1.0000   1.0000   1.0000   1.0000   1.0000
     1.0000   1.0000   1.0000   1.0000   1.0000   1.0000   1.0000   1.0000
     1.0000   1.0000

          k = 0.2000 1.7321 0.2449 (   614 PWs)   bands (ev):

   -85.1732 -83.8915 -45.8854 -45.7762 -45.5820 -44.5928 -44.4974 -44.4374
    12.8888  13.0046  13.5900  13.7834  14.1796  15.0469  15.8187  15.9502
    16.3073  17.6009

     occupation numbers 
     1.0000   1.0000   1.0000   1.0000   1.0000   1.0000   1.0000   1.0000
     1.0000   1.0000   1.0000   1.0000   1.0000   1.0000   1.0000   1.0000
     1.0000   1.0000

          k = 0.4000 1.6166 0.1633 (   614 PWs)   bands (ev):

   -85.1732 -83.8915 -45.8854 -45.7762 -45.5820 -44.5928 -44.4974 -44.4374
    12.8888  13.0046  13.5900  13.7834  14.1796  15.0469  15.8187  15.9502
    16.3073  17.6009

     occupation numbers 
     1.0000   1.0000   1.0000   1.0000   1.0000   1.0000   1.0000   1.0000
     1.0000   1.0000   1.0000   1.0000   1.0000   1.0000   1.0000   1.0000
     1.0000   1.0000

          k = 0.6000 1.5011 0.0816 (   613 PWs)   bands (ev):

   -85.1732 -83.8917 -45.8867 -45.7759 -45.5835 -44.5909 -44.4977 -44.4360
    12.5072  12.7541  13.7882  13.8478  14.3171  14.9995  15.9026  16.4376
    16.4951  17.4904

     occupation numbers 
     1.0000   1.0000   1.0000   1.0000   1.0000   1.0000   1.0000   1.0000
     1.0000   1.0000   1.0000   1.0000   1.0000   1.0000   1.0000   1.0000
     1.0000   1.0000

          k = 0.8000 1.3856 0.0000 (   620 PWs)   bands (ev):

   -85.1733 -83.8918 -45.8874 -45.7759 -45.5845 -44.5896 -44.4980 -44.4352
    12.3388  12.6585  13.7477  13.8630  14.4646  14.9546  15.9858  16.6133
    17.0444  17.1163

     occupation numbers 
     1.0000   1.0000   1.0000   1.0000   1.0000   1.0000   1.0000   1.0000
     1.0000   1.0000   1.0000   1.0000   1.0000   1.0000   1.0000   1.0000
     1.0000   1.0000

          k = 0.0000 0.0000 1.4697 (   627 PWs)   bands (ev):

   -85.1778 -83.8964 -45.8913 -45.7342 -45.5899 -44.5942 -44.4536 -44.4377
    11.9111  12.1786  13.3645  14.4301  14.5633  15.6011  15.8583  16.4606
    16.5418  17.0494

     occupation numbers 
     1.0000   1.0000   1.0000   1.0000   1.0000   1.0000   1.0000   1.0000
     1.0000   1.0000   1.0000   1.0000   1.0000   1.0000   1.0000   1.0000
     1.0000   1.0000

          k = 0.2000-0.1155 1.3880 (   632 PWs)   bands (ev):

   -85.1777 -83.8963 -45.8916 -45.7340 -45.5889 -44.5940 -44.4537 -44.4395
    12.0477  12.1436  13.6019  14.3828  14.4807  15.4919  15.5853  16.5566
    16.7653  18.0518

     occupation numbers 
     1.0000   1.0000   1.0000   1.0000   1.0000   1.0000   1.0000   1.0000
     1.0000   1.0000   1.0000   1.0000   1.0000   1.0000   1.0000   1.0000
     1.0000   1.0000

          k = 0.4000-0.2309 1.3064 (   620 PWs)   bands (ev):

   -85.1775 -83.8959 -45.8902 -45.7337 -45.5861 -44.5961 -44.4541 -44.4417
    12.2878  12.4477  13.8578  14.0854  14.6574  14.9392  15.5599  15.9292
    16.4244  17.5174

     occupation numbers 
     1.0000   1.0000   1.0000   1.0000   1.0000   1.0000   1.0000   1.0000
     1.0000   1.0000   1.0000   1.0000   1.0000   1.0000   1.0000   1.0000
     1.0000   1.0000

          k = 0.6000-0.3464 1.2247 (   621 PWs)   bands (ev):

   -85.1776 -83.8958 -45.8892 -45.7336 -45.5859 -44.5977 -44.4542 -44.4416
    12.2960  12.9845  13.1503  14.3240  14.7191  14.7369  15.5465  15.5619
    16.3214  17.3638

     occupation numbers 
     1.0000   1.0000   1.0000   1.0000   1.0000   1.0000   1.0000   1.0000
     1.0000   1.0000   1.0000   1.0000   1.0000   1.0000   1.0000   1.0000
     1.0000   1.0000

          k = 0.8000-0.4619 1.1431 (   622 PWs)   bands (ev):

   -85.1778 -83.8960 -45.8899 -45.7339 -45.5882 -44.5965 -44.4539 -44.4390
    12.0591  12.5173  13.3124  14.4102  14.5598  15.0772  15.5945  16.1931
    16.4109  16.9681

     occupation numbers 
     1.0000   1.0000   1.0000   1.0000   1.0000   1.0000   1.0000   1.0000
     1.0000   1.0000   1.0000   1.0000   1.0000   1.0000   1.0000   1.0000
     1.0000   1.0000

          k = 0.0000 0.4619 1.3064 (   613 PWs)   bands (ev):

   -85.1732 -83.8917 -45.8867 -45.7759 -45.5835 -44.5909 -44.4977 -44.4360
    12.5072  12.7541  13.7882  13.8478  14.3171  14.9995  15.9026  16.4376
    16.4951  17.4904

     occupation numbers 
     1.0000   1.0000   1.0000   1.0000   1.0000   1.0000   1.0000   1.0000
     1.0000   1.0000   1.0000   1.0000   1.0000   1.0000   1.0000   1.0000
     1.0000   1.0000

          k = 0.2000 0.3464 1.2247 (   620 PWs)   bands (ev):

   -85.1733 -83.8918 -45.8874 -45.7759 -45.5845 -44.5896 -44.4980 -44.4352
    12.3388  12.6585  13.7477  13.8630  14.4646  14.9546  15.9858  16.6133
    17.0444  17.1163

     occupation numbers 
     1.0000   1.0000   1.0000   1.0000   1.0000   1.0000   1.0000   1.0000
     1.0000   1.0000   1.0000   1.0000   1.0000   1.0000   1.0000   1.0000
     1.0000   1.0000

          k = 0.4000 0.2309 1.1431 (   613 PWs)   bands (ev):

   -85.1732 -83.8917 -45.8867 -45.7759 -45.5835 -44.5909 -44.4977 -44.4360
    12.5072  12.7541  13.7882  13.8478  14.3171  14.9995  15.9026  16.4376
    16.4951  17.4904

     occupation numbers 
     1.0000   1.0000   1.0000   1.0000   1.0000   1.0000   1.0000   1.0000
     1.0000   1.0000   1.0000   1.0000   1.0000   1.0000   1.0000   1.0000
     1.0000   1.0000

          k = 0.6000 0.1155 1.0614 (   614 PWs)   bands (ev):

   -85.1732 -83.8915 -45.8854 -45.7762 -45.5820 -44.5928 -44.4974 -44.4374
    12.8888  13.0046  13.5900  13.7834  14.1796  15.0469  15.8187  15.9502
    16.3073  17.6009

     occupation numbers 
     1.0000   1.0000   1.0000   1.0000   1.0000   1.0000   1.0000   1.0000
     1.0000   1.0000   1.0000   1.0000   1.0000   1.0000   1.0000   1.0000
     1.0000   1.0000

          k = 0.8000 0.0000 0.9798 (   614 PWs)   bands (ev):

   -85.1732 -83.8915 -45.8854 -45.7762 -45.5820 -44.5928 -44.4974 -44.4374
    12.8888  13.0046  13.5900  13.7834  14.1796  15.0469  15.8187  15.9502
    16.3073  17.6009

     occupation numbers 
     1.0000   1.0000   1.0000   1.0000   1.0000   1.0000   1.0000   1.0000
     1.0000   1.0000   1.0000   1.0000   1.0000   1.0000   1.0000   1.0000
     1.0000   1.0000

          k = 0.0000 0.9238 1.1431 (   620 PWs)   bands (ev):

   -85.1733 -83.8919 -45.8643 -45.7994 -45.5843 -44.5776 -44.5102 -44.4351
    12.3566  12.6536  13.7349  13.8487  14.4573  14.9485  15.9898  16.6229
    17.0685  17.1024

     occupation numbers 
     1.0000   1.0000   1.0000   1.0000   1.0000   1.0000   1.0000   1.0000
     1.0000   1.0000   1.0000   1.0000   1.0000   1.0000   1.0000   1.0000
     1.0000   1.0000

          k = 0.2000 0.8083 1.0614 (   613 PWs)   bands (ev):

   -85.1733 -83.8917 -45.8638 -45.7991 -45.5832 -44.5786 -44.5100 -44.4360
    12.5219  12.7486  13.7748  13.8459  14.3127  14.9953  15.9060  16.4331
    16.4810  17.5167

     occupation numbers 
     1.0000   1.0000   1.0000   1.0000   1.0000   1.0000   1.0000   1.0000
     1.0000   1.0000   1.0000   1.0000   1.0000   1.0000   1.0000   1.0000
     1.0000   1.0000

          k = 0.4000 0.6928 0.9798 (   614 PWs)   bands (ev):

   -85.1732 -83.8915 -45.8625 -45.7993 -45.5818 -44.5806 -44.5097 -44.4374
    12.8989  13.0045  13.5840  13.7778  14.1833  15.0429  15.8203  15.9414
    16.2783  17.6357

     occupation numbers 
     1.0000   1.0000   1.0000   1.0000   1.0000   1.0000   1.0000   1.0000
     1.0000   1.0000   1.0000   1.0000   1.0000   1.0000   1.0000   1.0000
     1.0000   1.0000

          k = 0.6000 0.5774 0.8981 (   614 PWs)   bands (ev):

   -85.1732 -83.8915 -45.8622 -45.7996 -45.5819 -44.5809 -44.5096 -44.4372
    12.9065  13.0065  13.5848  13.7610  14.1801  15.0440  15.8234  15.9478
    16.2841  17.6285

     occupation numbers 
     1.0000   1.0000   1.0000   1.0000   1.0000   1.0000   1.0000   1.0000
     1.0000   1.0000   1.0000   1.0000   1.0000   1.0000   1.0000   1.0000
     1.0000   1.0000

          k = 0.8000 0.4619 0.8165 (   613 PWs)   bands (ev):

   -85.1733 -83.8917 -45.8633 -45.7995 -45.5834 -44.5790 -44.5098 -44.4357
    12.5283  12.7498  13.7706  13.8352  14.3092  14.9946  15.9071  16.4566
    16.4853  17.4993

     occupation numbers 
     1.0000   1.0000   1.0000   1.0000   1.0000   1.0000   1.0000   1.0000
     1.0000   1.0000   1.0000   1.0000   1.0000   1.0000   1.0000   1.0000
     1.0000   1.0000

          k = 0.0000 1.3856 0.9798 (   632 PWs)   bands (ev):

   -85.1778 -83.8963 -45.8667 -45.7594 -45.5884 -44.5816 -44.4669 -44.4388
    12.0627  12.1376  13.5900  14.3773  14.4609  15.5023  15.5837  16.5545
    16.7522  18.0529

     occupation numbers 
     1.0000   1.0000   1.0000   1.0000   1.0000   1.0000   1.0000   1.0000
     1.0000   1.0000   1.0000   1.0000   1.0000   1.0000   1.0000   1.0000
     1.0000   1.0000

          k = 0.2000 1.2702 0.8981 (   627 PWs)   bands (ev):

   -85.1779 -83.8964 -45.8666 -45.7595 -45.5894 -44.5816 -44.4667 -44.4372
    11.9207  12.1744  13.3569  14.4102  14.5575  15.6005  15.8720  16.4669
    16.5395  17.0281

     occupation numbers 
     1.0000   1.0000   1.0000   1.0000   1.0000   1.0000   1.0000   1.0000
     1.0000   1.0000   1.0000   1.0000   1.0000   1.0000   1.0000   1.0000
     1.0000   1.0000

          k = 0.4000 1.1547 0.8165 (   622 PWs)   bands (ev):

   -85.1778 -83.8961 -45.8651 -45.7592 -45.5877 -44.5839 -44.4670 -44.4384
    12.0635  12.5153  13.3121  14.4070  14.5379  15.0920  15.5957  16.1702
    16.4079  16.9648

     occupation numbers 
     1.0000   1.0000   1.0000   1.0000   1.0000   1.0000   1.0000   1.0000
     1.0000   1.0000   1.0000   1.0000   1.0000   1.0000   1.0000   1.0000
     1.0000   1.0000

          k = 0.6000 1.0392 0.7348 (   621 PWs)   bands (ev):

   -85.1776 -83.8958 -45.8643 -45.7589 -45.5856 -44.5853 -44.4674 -44.4407
    12.2957  12.9975  13.1468  14.3261  14.6946  14.7468  15.5135  15.5626
    16.3198  17.3609

     occupation numbers 
     1.0000   1.0000   1.0000   1.0000   1.0000   1.0000   1.0000   1.0000
     1.0000   1.0000   1.0000   1.0000   1.0000   1.0000   1.0000   1.0000
     1.0000   1.0000

          k = 0.8000 0.9238 0.6532 (   620 PWs)   bands (ev):

   -85.1775 -83.8959 -45.8652 -45.7590 -45.5858 -44.5839 -44.4672 -44.4407
    12.2828  12.4641  13.8548  14.0761  14.6350  14.9510  15.5576  15.9046
    16.4232  17.5155

     occupation numbers 
     1.0000   1.0000   1.0000   1.0000   1.0000   1.0000   1.0000   1.0000
     1.0000   1.0000   1.0000   1.0000   1.0000   1.0000   1.0000   1.0000
     1.0000   1.0000

          k = 0.0000 1.8475 0.8165 (   627 PWs)   bands (ev):

   -85.1798 -83.8986 -45.8506 -45.7520 -45.5900 -44.5552 -44.4697 -44.4426
    12.3716  13.0908  13.1712  13.8436  14.2428  15.0046  15.2383  16.1934
    16.4446  16.7051

     occupation numbers 
     1.0000   1.0000   1.0000   1.0000   1.0000   1.0000   1.0000   1.0000
     1.0000   1.0000   1.0000   1.0000   1.0000   1.0000   1.0000   1.0000
     1.0000   1.0000

          k = 0.2000 1.7321 0.7348 (   627 PWs)   bands (ev):

   -85.1798 -83.8986 -45.8506 -45.7521 -45.5899 -44.5551 -44.4696 -44.4428
    12.3724  13.0869  13.1720  13.8481  14.2354  15.0031  15.2375  16.1918
    16.4479  16.7299

     occupation numbers 
     1.0000   1.0000   1.0000   1.0000   1.0000   1.0000   1.0000   1.0000
     1.0000   1.0000   1.0000   1.0000   1.0000   1.0000   1.0000   1.0000
     1.0000   1.0000

          k = 0.4000 1.6166 0.6532 (   617 PWs)   bands (ev):

   -85.1799 -83.8984 -45.8494 -45.7521 -45.5903 -44.5568 -44.4696 -44.4413
    12.2454  13.0698  13.2001  13.7667  14.2781  15.1544  15.2249  15.7608
    16.3198  16.6816

     occupation numbers 
     1.0000   1.0000   1.0000   1.0000   1.0000   1.0000   1.0000   1.0000
     1.0000   1.0000   1.0000   1.0000   1.0000   1.0000   1.0000   1.0000
     1.0000   1.0000

          k = 0.6000 1.5011 0.5715 (   621 PWs)   bands (ev):

   -85.1800 -83.8984 -45.8486 -45.7522 -45.5910 -44.5579 -44.4699 -44.4404
[...]
    12.3554  12.6525  13.7343  13.8475  14.4551  14.9491  15.9908  16.6243
    17.0702  17.1030

     occupation numbers 
     1.0000   1.0000   1.0000   1.0000   1.0000   1.0000   1.0000   1.0000
     1.0000   1.0000   1.0000   1.0000   1.0000   1.0000   1.0000   1.0000
     1.0000   1.0000

          k = 0.2000 0.8083 1.0614 (   613 PWs)   bands (ev):

   -85.1764 -83.8887 -45.8671 -45.8024 -45.5856 -44.5756 -44.5069 -44.4333
    12.5206  12.7474  13.7736  13.8453  14.3107  14.9955  15.9068  16.4347
    16.4820  17.5182

     occupation numbers 
     1.0000   1.0000   1.0000   1.0000   1.0000   1.0000   1.0000   1.0000
     1.0000   1.0000   1.0000   1.0000   1.0000   1.0000   1.0000   1.0000
     1.0000   1.0000

          k = 0.4000 0.6928 0.9798 (   614 PWs)   bands (ev):

   -85.1763 -83.8884 -45.8658 -45.8026 -45.5841 -44.5776 -44.5066 -44.4347
    12.8965  13.0036  13.5838  13.7765  14.1820  15.0424  15.8210  15.9436
    16.2791  17.6372

     occupation numbers 
     1.0000   1.0000   1.0000   1.0000   1.0000   1.0000   1.0000   1.0000
     1.0000   1.0000   1.0000   1.0000   1.0000   1.0000   1.0000   1.0000
     1.0000   1.0000

          k = 0.6000 0.5774 0.8981 (   614 PWs)   bands (ev):

   -85.1763 -83.8884 -45.8655 -45.8029 -45.5842 -44.5779 -44.5065 -44.4345
    12.9039  13.0055  13.5848  13.7597  14.1790  15.0435  15.8247  15.9494
    16.2852  17.6298

     occupation numbers 
     1.0000   1.0000   1.0000   1.0000   1.0000   1.0000   1.0000   1.0000
     1.0000   1.0000   1.0000   1.0000   1.0000   1.0000   1.0000   1.0000
     1.0000   1.0000

          k = 0.8000 0.4619 0.8165 (   613 PWs)   bands (ev):

   -85.1764 -83.8887 -45.8666 -45.8029 -45.5857 -44.5760 -44.5067 -44.4330
    12.5268  12.7486  13.7695  13.8344  14.3076  14.9948  15.9080  16.4579
    16.4870  17.5002

     occupation numbers 
     1.0000   1.0000   1.0000   1.0000   1.0000   1.0000   1.0000   1.0000
     1.0000   1.0000   1.0000   1.0000   1.0000   1.0000   1.0000   1.0000
     1.0000   1.0000

          k = 0.0000 1.3856 0.9798 (   632 PWs)   bands (ev):

   -85.1809 -83.8933 -45.8700 -45.7628 -45.5908 -44.5786 -44.4638 -44.4361
    12.0614  12.1365  13.5895  14.3778  14.4592  15.5025  15.5806  16.5568
    16.7526  18.0530

     occupation numbers 
     1.0000   1.0000   1.0000   1.0000   1.0000   1.0000   1.0000   1.0000
     1.0000   1.0000   1.0000   1.0000   1.0000   1.0000   1.0000   1.0000
     1.0000   1.0000

          k = 0.2000 1.2702 0.8981 (   627 PWs)   bands (ev):

   -85.1810 -83.8934 -45.8699 -45.7629 -45.5917 -44.5786 -44.4637 -44.4345
    11.9191  12.1739  13.3564  14.4085  14.5580  15.5974  15.8708  16.4683
    16.5419  17.0289

     occupation numbers 
     1.0000   1.0000   1.0000   1.0000   1.0000   1.0000   1.0000   1.0000
     1.0000   1.0000   1.0000   1.0000   1.0000   1.0000   1.0000   1.0000
     1.0000   1.0000

          k = 0.4000 1.1547 0.8165 (   622 PWs)   bands (ev):

   -85.1809 -83.8930 -45.8684 -45.7625 -45.5901 -44.5809 -44.4640 -44.4357
    12.0617  12.5150  13.3114  14.4072  14.5360  15.0923  15.5926  16.1710
    16.4104  16.9654

     occupation numbers 
     1.0000   1.0000   1.0000   1.0000   1.0000   1.0000   1.0000   1.0000
     1.0000   1.0000   1.0000   1.0000   1.0000   1.0000   1.0000   1.0000
     1.0000   1.0000

          k = 0.6000 1.0392 0.7348 (   621 PWs)   bands (ev):

   -85.1807 -83.8928 -45.8676 -45.7623 -45.5880 -44.5823 -44.4643 -44.4380
    12.2936  12.9963  13.1470  14.3251  14.6922  14.7479  15.5151  15.5598
    16.3224  17.3612

     occupation numbers 
     1.0000   1.0000   1.0000   1.0000   1.0000   1.0000   1.0000   1.0000
     1.0000   1.0000   1.0000   1.0000   1.0000   1.0000   1.0000   1.0000
     1.0000   1.0000

          k = 0.8000 0.9238 0.6532 (   620 PWs)   bands (ev):

   -85.1807 -83.8929 -45.8685 -45.7624 -45.5882 -44.5809 -44.4642 -44.4380
    12.2813  12.4627  13.8552  14.0752  14.6329  14.9519  15.5548  15.9058
    16.4256  17.5155

     occupation numbers 
     1.0000   1.0000   1.0000   1.0000   1.0000   1.0000   1.0000   1.0000
     1.0000   1.0000   1.0000   1.0000   1.0000   1.0000   1.0000   1.0000
     1.0000   1.0000

          k = 0.0000 1.8475 0.8165 (   627 PWs)   bands (ev):

   -85.1830 -83.8955 -45.8541 -45.7551 -45.5924 -44.5521 -44.4667 -44.4399
    12.3707  13.0905  13.1695  13.8421  14.2416  15.0053  15.2383  16.1923
    16.4469  16.7057

     occupation numbers 
     1.0000   1.0000   1.0000   1.0000   1.0000   1.0000   1.0000   1.0000
     1.0000   1.0000   1.0000   1.0000   1.0000   1.0000   1.0000   1.0000
     1.0000   1.0000

          k = 0.2000 1.7321 0.7348 (   627 PWs)   bands (ev):

   -85.1830 -83.8955 -45.8541 -45.7552 -45.5923 -44.5520 -44.4666 -44.4401
    12.3715  13.0867  13.1703  13.8465  14.2341  15.0042  15.2375  16.1905
    16.4500  16.7308

     occupation numbers 
     1.0000   1.0000   1.0000   1.0000   1.0000   1.0000   1.0000   1.0000
     1.0000   1.0000   1.0000   1.0000   1.0000   1.0000   1.0000   1.0000
     1.0000   1.0000

          k = 0.4000 1.6166 0.6532 (   617 PWs)   bands (ev):

   -85.1830 -83.8954 -45.8529 -45.7552 -45.5927 -44.5537 -44.4666 -44.4387
    12.2449  13.0690  13.1983  13.7653  14.2766  15.1551  15.2261  15.7597
    16.3213  16.6828

     occupation numbers 
     1.0000   1.0000   1.0000   1.0000   1.0000   1.0000   1.0000   1.0000
     1.0000   1.0000   1.0000   1.0000   1.0000   1.0000   1.0000   1.0000
     1.0000   1.0000

          k = 0.6000 1.5011 0.5715 (   621 PWs)   bands (ev):

   -85.1831 -83.8954 -45.8521 -45.7553 -45.5933 -44.5548 -44.4669 -44.4377
    12.1566  13.0740  13.2238  13.6784  14.3778  15.1037  15.4591  15.5085
    16.0482  16.7352

     occupation numbers 
     1.0000   1.0000   1.0000   1.0000   1.0000   1.0000   1.0000   1.0000
     1.0000   1.0000   1.0000   1.0000   1.0000   1.0000   1.0000   1.0000
     1.0000   1.0000

          k = 0.8000 1.3856 0.4899 (   617 PWs)   bands (ev):

   -85.1830 -83.8954 -45.8528 -45.7551 -45.5929 -44.5538 -44.4667 -44.4384
    12.2436  13.0736  13.2007  13.7596  14.2829  15.1517  15.2354  15.7543
    16.3024  16.6815

     occupation numbers 
     1.0000   1.0000   1.0000   1.0000   1.0000   1.0000   1.0000   1.0000
     1.0000   1.0000   1.0000   1.0000   1.0000   1.0000   1.0000   1.0000
     1.0000   1.0000

          k = 0.0000 0.0000 1.9596 (   623 PWs)   bands (ev):

   -85.1942 -83.9068 -45.7961 -45.7130 -45.6073 -44.4922 -44.4442 -44.4254
    10.1720  12.7647  13.7064  13.7241  14.3808  14.8133  14.9314  15.5431
    15.9170  16.4924

     occupation numbers 
     1.0000   1.0000   1.0000   1.0000   1.0000   1.0000   1.0000   1.0000
     1.0000   1.0000   1.0000   1.0000   1.0000   1.0000   1.0000   1.0000
     1.0000   1.0000

          k = 0.2000-0.1155 1.8779 (   627 PWs)   bands (ev):

   -85.1940 -83.9068 -45.7967 -45.7129 -45.6036 -44.4915 -44.4489 -44.4254
    10.9529  12.5042  13.4800  13.8770  14.4396  14.5556  14.9359  15.3893
    15.9071  16.3720

     occupation numbers 
     1.0000   1.0000   1.0000   1.0000   1.0000   1.0000   1.0000   1.0000
     1.0000   1.0000   1.0000   1.0000   1.0000   1.0000   1.0000   1.0000
     1.0000   1.0000

          k = 0.4000-0.2309 1.7963 (   620 PWs)   bands (ev):

   -85.1939 -83.9068 -45.7970 -45.7126 -45.6011 -44.4905 -44.4520 -44.4256
    11.6482  12.1410  13.4543  13.9289  14.3692  14.5085  14.9112  15.1557
    15.9723  16.0531

     occupation numbers 
     1.0000   1.0000   1.0000   1.0000   1.0000   1.0000   1.0000   1.0000
     1.0000   1.0000   1.0000   1.0000   1.0000   1.0000   1.0000   1.0000
     1.0000   1.0000

          k = 0.6000-0.3464 1.7146 (   611 PWs)   bands (ev):

   -85.1940 -83.9067 -45.7965 -45.7124 -45.6034 -44.4908 -44.4491 -44.4256
    10.6263  12.8516  13.5004  14.0308  14.4783  14.5970  14.9101  15.1821
    16.0112  16.0493

     occupation numbers 
     1.0000   1.0000   1.0000   1.0000   1.0000   1.0000   1.0000   1.0000
     1.0000   1.0000   1.0000   1.0000   1.0000   1.0000   1.0000   1.0000
     1.0000   1.0000

          k = 0.8000-0.4619 1.6330 (   617 PWs)   bands (ev):

   -85.1942 -83.9068 -45.7960 -45.7126 -45.6073 -44.4918 -44.4445 -44.4254
    10.0628  12.8772  13.5947  13.8771  14.4056  14.8367  14.9128  15.4431
    15.9780  16.4116

     occupation numbers 
     1.0000   1.0000   1.0000   1.0000   1.0000   1.0000   1.0000   1.0000
     1.0000   1.0000   1.0000   1.0000   1.0000   1.0000   1.0000   1.0000
     1.0000   1.0000

          k = 0.0000 0.4619 1.7963 (   621 PWs)   bands (ev):

   -85.1831 -83.8954 -45.8521 -45.7553 -45.5933 -44.5548 -44.4669 -44.4377
    12.1566  13.0740  13.2238  13.6784  14.3778  15.1037  15.4591  15.5085
    16.0482  16.7352

     occupation numbers 
     1.0000   1.0000   1.0000   1.0000   1.0000   1.0000   1.0000   1.0000
     1.0000   1.0000   1.0000   1.0000   1.0000   1.0000   1.0000   1.0000
     1.0000   1.0000

          k = 0.2000 0.3464 1.7146 (   617 PWs)   bands (ev):

   -85.1830 -83.8954 -45.8528 -45.7551 -45.5929 -44.5538 -44.4667 -44.4384
    12.2436  13.0736  13.2007  13.7596  14.2829  15.1517  15.2354  15.7543
    16.3024  16.6815

     occupation numbers 
     1.0000   1.0000   1.0000   1.0000   1.0000   1.0000   1.0000   1.0000
     1.0000   1.0000   1.0000   1.0000   1.0000   1.0000   1.0000   1.0000
     1.0000   1.0000

          k = 0.4000 0.2309 1.6330 (   627 PWs)   bands (ev):

   -85.1830 -83.8955 -45.8541 -45.7551 -45.5924 -44.5521 -44.4667 -44.4399
    12.3707  13.0905  13.1695  13.8421  14.2416  15.0053  15.2383  16.1923
    16.4469  16.7057

     occupation numbers 
     1.0000   1.0000   1.0000   1.0000   1.0000   1.0000   1.0000   1.0000
     1.0000   1.0000   1.0000   1.0000   1.0000   1.0000   1.0000   1.0000
     1.0000   1.0000

          k = 0.6000 0.1155 1.5513 (   627 PWs)   bands (ev):

   -85.1830 -83.8955 -45.8541 -45.7552 -45.5923 -44.5520 -44.4666 -44.4401
    12.3715  13.0867  13.1703  13.8465  14.2341  15.0042  15.2375  16.1905
    16.4500  16.7308

     occupation numbers 
     1.0000   1.0000   1.0000   1.0000   1.0000   1.0000   1.0000   1.0000
     1.0000   1.0000   1.0000   1.0000   1.0000   1.0000   1.0000   1.0000
     1.0000   1.0000

          k = 0.8000 0.0000 1.4697 (   617 PWs)   bands (ev):

   -85.1830 -83.8954 -45.8529 -45.7552 -45.5927 -44.5537 -44.4666 -44.4387
    12.2449  13.0690  13.1983  13.7653  14.2766  15.1551  15.2261  15.7597
    16.3213  16.6828

     occupation numbers 
     1.0000   1.0000   1.0000   1.0000   1.0000   1.0000   1.0000   1.0000
     1.0000   1.0000   1.0000   1.0000   1.0000   1.0000   1.0000   1.0000
     1.0000   1.0000

          k = 0.0000 0.9238 1.6330 (   613 PWs)   bands (ev):

   -85.1764 -83.8887 -45.8666 -45.8029 -45.5857 -44.5760 -44.5067 -44.4330
    12.5268  12.7486  13.7695  13.8344  14.3076  14.9948  15.9080  16.4579
    16.4870  17.5002

     occupation numbers 
     1.0000   1.0000   1.0000   1.0000   1.0000   1.0000   1.0000   1.0000
     1.0000   1.0000   1.0000   1.0000   1.0000   1.0000   1.0000   1.0000
     1.0000   1.0000

          k = 0.2000 0.8083 1.5513 (   614 PWs)   bands (ev):

   -85.1763 -83.8884 -45.8655 -45.8029 -45.5842 -44.5779 -44.5065 -44.4345
    12.9039  13.0055  13.5848  13.7597  14.1790  15.0435  15.8247  15.9494
    16.2852  17.6298

     occupation numbers 
     1.0000   1.0000   1.0000   1.0000   1.0000   1.0000   1.0000   1.0000
     1.0000   1.0000   1.0000   1.0000   1.0000   1.0000   1.0000   1.0000
     1.0000   1.0000

          k = 0.4000 0.6928 1.4697 (   614 PWs)   bands (ev):

   -85.1763 -83.8884 -45.8658 -45.8026 -45.5841 -44.5776 -44.5066 -44.4347
    12.8965  13.0036  13.5838  13.7765  14.1820  15.0424  15.8210  15.9436
    16.2791  17.6372

     occupation numbers 
     1.0000   1.0000   1.0000   1.0000   1.0000   1.0000   1.0000   1.0000
     1.0000   1.0000   1.0000   1.0000   1.0000   1.0000   1.0000   1.0000
     1.0000   1.0000

          k = 0.6000 0.5774 1.3880 (   613 PWs)   bands (ev):

   -85.1764 -83.8887 -45.8671 -45.8024 -45.5856 -44.5756 -44.5069 -44.4333
    12.5206  12.7474  13.7736  13.8453  14.3107  14.9955  15.9068  16.4347
    16.4820  17.5182

     occupation numbers 
     1.0000   1.0000   1.0000   1.0000   1.0000   1.0000   1.0000   1.0000
     1.0000   1.0000   1.0000   1.0000   1.0000   1.0000   1.0000   1.0000
     1.0000   1.0000

          k = 0.8000 0.4619 1.3064 (   620 PWs)   bands (ev):

   -85.1764 -83.8888 -45.8676 -45.8027 -45.5867 -44.5746 -44.5071 -44.4324
    12.3554  12.6525  13.7343  13.8475  14.4551  14.9491  15.9908  16.6243
    17.0702  17.1030

     occupation numbers 
     1.0000   1.0000   1.0000   1.0000   1.0000   1.0000   1.0000   1.0000
     1.0000   1.0000   1.0000   1.0000   1.0000   1.0000   1.0000   1.0000
     1.0000   1.0000

          k = 0.0000 1.3856 1.4697 (   627 PWs)   bands (ev):

   -85.1830 -83.8955 -45.8236 -45.7858 -45.5922 -44.5386 -44.4808 -44.4393
    12.3848  13.0886  13.1739  13.8248  14.2198  15.0124  15.2280  16.1954
    16.4491  16.7169

     occupation numbers 
     1.0000   1.0000   1.0000   1.0000   1.0000   1.0000   1.0000   1.0000
     1.0000   1.0000   1.0000   1.0000   1.0000   1.0000   1.0000   1.0000
     1.0000   1.0000

          k = 0.2000 1.2702 1.3880 (   627 PWs)   bands (ev):

   -85.1830 -83.8955 -45.8236 -45.7858 -45.5922 -44.5386 -44.4808 -44.4393
    12.3848  13.0886  13.1739  13.8248  14.2198  15.0124  15.2280  16.1954
    16.4491  16.7169

     occupation numbers 
     1.0000   1.0000   1.0000   1.0000   1.0000   1.0000   1.0000   1.0000
     1.0000   1.0000   1.0000   1.0000   1.0000   1.0000   1.0000   1.0000
     1.0000   1.0000

          k = 0.4000 1.1547 1.3064 (   617 PWs)   bands (ev):

   -85.1830 -83.8954 -45.8223 -45.7861 -45.5924 -44.5403 -44.4801 -44.4385
    12.2480  13.0691  13.2183  13.7470  14.2671  15.1425  15.2322  15.7633
    16.2890  16.6899

     occupation numbers 
     1.0000   1.0000   1.0000   1.0000   1.0000   1.0000   1.0000   1.0000
     1.0000   1.0000   1.0000   1.0000   1.0000   1.0000   1.0000   1.0000
     1.0000   1.0000

          k = 0.6000 1.0392 1.2247 (   621 PWs)   bands (ev):

   -85.1831 -83.8954 -45.8216 -45.7864 -45.5929 -44.5414 -44.4798 -44.4383
    12.1564  13.0722  13.2473  13.6658  14.3647  15.0976  15.4575  15.5177
    16.0159  16.7441

     occupation numbers 
     1.0000   1.0000   1.0000   1.0000   1.0000   1.0000   1.0000   1.0000
     1.0000   1.0000   1.0000   1.0000   1.0000   1.0000   1.0000   1.0000
     1.0000   1.0000

          k = 0.8000 0.9238 1.1431 (   617 PWs)   bands (ev):

   -85.1830 -83.8954 -45.8223 -45.7861 -45.5924 -44.5403 -44.4801 -44.4385
    12.2480  13.0691  13.2183  13.7470  14.2671  15.1425  15.2322  15.7633
    16.2890  16.6899

     occupation numbers 
     1.0000   1.0000   1.0000   1.0000   1.0000   1.0000   1.0000   1.0000
     1.0000   1.0000   1.0000   1.0000   1.0000   1.0000   1.0000   1.0000
     1.0000   1.0000

          k = 0.0000 1.8475 1.3064 (   611 PWs)   bands (ev):

   -85.1940 -83.9068 -45.7757 -45.7333 -45.6034 -44.4801 -44.4500 -44.4353
    10.6261  12.8492  13.5199  14.0291  14.4621  14.6036  14.9033  15.1835
    16.0077  16.0203

     occupation numbers 
     1.0000   1.0000   1.0000   1.0000   1.0000   1.0000   1.0000   1.0000
     1.0000   1.0000   1.0000   1.0000   1.0000   1.0000   1.0000   1.0000
     1.0000   1.0000

          k = 0.2000 1.7321 1.2247 (   620 PWs)   bands (ev):

   -85.1939 -83.9068 -45.7763 -45.7335 -45.6010 -44.4794 -44.4532 -44.4355
    11.6473  12.1418  13.4682  13.9276  14.3705  14.4894  14.9075  15.1479
    15.9767  16.0488

     occupation numbers 
     1.0000   1.0000   1.0000   1.0000   1.0000   1.0000   1.0000   1.0000
     1.0000   1.0000   1.0000   1.0000   1.0000   1.0000   1.0000   1.0000
     1.0000   1.0000

          k = 0.4000 1.6166 1.1431 (   627 PWs)   bands (ev):

   -85.1940 -83.9068 -45.7766 -45.7337 -45.6030 -44.4790 -44.4519 -44.4350
    10.9527  12.4968  13.4976  13.8913  14.4183  14.5436  14.9361  15.3739
    15.9126  16.3845

     occupation numbers 
     1.0000   1.0000   1.0000   1.0000   1.0000   1.0000   1.0000   1.0000
     1.0000   1.0000   1.0000   1.0000   1.0000   1.0000   1.0000   1.0000
     1.0000   1.0000

          k = 0.6000 1.5011 1.0614 (   623 PWs)   bands (ev):

   -85.1943 -83.9068 -45.7761 -45.7336 -45.6067 -44.4796 -44.4480 -44.4343
    10.1714  12.7553  13.7152  13.7493  14.3609  14.8061  14.9318  15.5352
    15.9217  16.4743

     occupation numbers 
     1.0000   1.0000   1.0000   1.0000   1.0000   1.0000   1.0000   1.0000
     1.0000   1.0000   1.0000   1.0000   1.0000   1.0000   1.0000   1.0000
     1.0000   1.0000

          k = 0.8000 1.3856 0.9798 (   617 PWs)   bands (ev):

   -85.1942 -83.9068 -45.7756 -45.7333 -45.6070 -44.4802 -44.4470 -44.4345
    10.0624  12.8705  13.6117  13.8880  14.3881  14.8363  14.9100  15.4452
    15.9818  16.3722

     occupation numbers 
     1.0000   1.0000   1.0000   1.0000   1.0000   1.0000   1.0000   1.0000
     1.0000   1.0000   1.0000   1.0000   1.0000   1.0000   1.0000   1.0000
     1.0000   1.0000

     the Fermi energy is    18.9996 ev
     (compare with:    19.0831 eV, computed in scf)

     Writing all to output data dir ./outputs/Ni.save/ :
     XML data file, pseudopotentials, collected wavefunctions
 
     init_run     :      0.25s CPU      0.29s WALL (       1 calls)
     electrons    :      2.80s CPU      2.84s WALL (       1 calls)

     Called by init_run:
     wfcinit      :      0.06s CPU      0.10s WALL (       1 calls)
     wfcinit:atom :      0.01s CPU      0.01s WALL (      63 calls)
     wfcinit:wfcr :      0.23s CPU      0.23s WALL (      63 calls)
     potinit      :      0.01s CPU      0.01s WALL (       1 calls)
     hinit0       :      0.17s CPU      0.17s WALL (       1 calls)

     Called by electrons:
     c_bands      :      2.80s CPU      2.84s WALL (       1 calls)
     v_of_rho     :      0.01s CPU      0.01s WALL (       1 calls)
     v_h          :      0.00s CPU      0.00s WALL (       1 calls)
     v_xc         :      0.01s CPU      0.01s WALL (       1 calls)
     newd         :      0.01s CPU      0.01s WALL (       1 calls)

     Called by c_bands:
     init_us_2    :      0.02s CPU      0.02s WALL (     126 calls)
     init_us_2:cp :      0.02s CPU      0.02s WALL (     126 calls)
     cegterg      :      2.34s CPU      2.37s WALL (      68 calls)

     Called by sum_band:

     Called by *egterg:
     cdiaghg      :      0.37s CPU      0.37s WALL (    1117 calls)
     cegterg:over :      0.11s CPU      0.11s WALL (    1054 calls)
     cegterg:upda :      0.05s CPU      0.05s WALL (    1054 calls)
     cegterg:last :      0.12s CPU      0.12s WALL (     781 calls)
     h_psi        :      1.81s CPU      1.83s WALL (    1185 calls)
     s_psi        :      0.06s CPU      0.06s WALL (    1248 calls)
     g_psi        :      0.02s CPU      0.02s WALL (    1054 calls)

     Called by h_psi:
     h_psi:calbec :      0.06s CPU      0.06s WALL (    1185 calls)
     vloc_psi     :      1.64s CPU      1.66s WALL (    1185 calls)
     add_vuspsi   :      0.05s CPU      0.05s WALL (    1185 calls)
     vhpsi        :      0.06s CPU      0.06s WALL (    1185 calls)

     General routines
     calbec       :      0.09s CPU      0.09s WALL (    2433 calls)
     fft          :      0.00s CPU      0.00s WALL (      21 calls)
     fftw         :      1.26s CPU      1.28s WALL (   30920 calls)
     davcio       :      0.01s CPU      0.01s WALL (     252 calls)
 
     Parallel routines

     Hubbard U routines
     vhpsi        :      0.06s CPU      0.06s WALL (    1185 calls)
 
     PWSCF        :      3.27s CPU      3.71s WALL

 
   This run was terminated on:  17:37: 2  22May2025            

=------------------------------------------------------------------------------=
   JOB DONE.
=------------------------------------------------------------------------------=
