
     Program PROJWFC v.7.3 starts on 22May2025 at 17:37: 3 
        Git branch: HEAD
        Last git commit: 86535f777cf6580630c3ad900c934576e98012c6
        Last git commit date: Fri Dec 15 21:03:38 2023 +0000
        Last git commit subject: Merge branch 'develop' into 'master'

     This program is part of the open-source Quantum ESPRESSO suite
     for quantum simulation of materials; please cite
         "P. Giannozzi et al., J. Phys.:Condens. Matter 21 395502 (2009);
         "P. Giannozzi et al., J. Phys.:Condens. Matter 29 465901 (2017);
         "P. Giannozzi et al., J. Chem. Phys. 152 154105 (2020);
          URL http://www.quantum-espresso.org", 
     in publications or presentations arising from this work. More details at
     http://www.quantum-espresso.org/quote

     Parallel version (MPI), running on     4 processors

     MPI processes distributed on     1 nodes
     R & G space division:  proc/nbgrp/npool/nimage =       4
     31823 MiB available memory on the printing compute node when the environment starts
 

     Reading xml data from directory:

     ./outputs/Ni.save/

     IMPORTANT: XC functional enforced from input :
     Exchange-correlation= PBESOL
                           (   1   4  10   8   0   0   0)
     Any further DFT definition will be discarded
     Please, verify this is what you really want

 
     Parallelization info
     --------------------
     sticks:   dense  smooth     PW     G-vecs:    dense   smooth      PW
     Min         119     119     45                 1231     1231     296
     Max         120     120     46                 1234     1234     298
     Sum         479     479    183                 4933     4933    1189
 
     Using Slab Decomposition
 

     Check: negative core charge=   -0.000112

     Gaussian broadening (read from input): ngauss,degauss=   0    0.010000


     Calling projwave .... 
     Subspace diagonalization in iterative solution of the eigenvalue problem:
     a serial algorithm will be used

 
  Problem Sizes 
  natomwfc =           26
  nbnd     =           18
  nkstot   =          250
  npwx     =          170
  nkb      =           36
 

     Atomic states used for projection
     (read from pseudopotential files):

     state #   1: atom   1 (Ni ), wfc  1 (l=0 m= 1)
     state #   2: atom   1 (Ni ), wfc  2 (l=1 m= 1)
     state #   3: atom   1 (Ni ), wfc  2 (l=1 m= 2)
     state #   4: atom   1 (Ni ), wfc  2 (l=1 m= 3)
     state #   5: atom   1 (Ni ), wfc  3 (l=2 m= 1)
     state #   6: atom   1 (Ni ), wfc  3 (l=2 m= 2)
     state #   7: atom   1 (Ni ), wfc  3 (l=2 m= 3)
     state #   8: atom   1 (Ni ), wfc  3 (l=2 m= 4)
     state #   9: atom   1 (Ni ), wfc  3 (l=2 m= 5)
     state #  10: atom   1 (Ni ), wfc  4 (l=0 m= 1)
     state #  11: atom   1 (Ni ), wfc  5 (l=1 m= 1)
     state #  12: atom   1 (Ni ), wfc  5 (l=1 m= 2)
     state #  13: atom   1 (Ni ), wfc  5 (l=1 m= 3)
     state #  14: atom   2 (Ni1), wfc  1 (l=0 m= 1)
     state #  15: atom   2 (Ni1), wfc  2 (l=1 m= 1)
     state #  16: atom   2 (Ni1), wfc  2 (l=1 m= 2)
     state #  17: atom   2 (Ni1), wfc  2 (l=1 m= 3)
     state #  18: atom   2 (Ni1), wfc  3 (l=2 m= 1)
     state #  19: atom   2 (Ni1), wfc  3 (l=2 m= 2)
     state #  20: atom   2 (Ni1), wfc  3 (l=2 m= 3)
     state #  21: atom   2 (Ni1), wfc  3 (l=2 m= 4)
     state #  22: atom   2 (Ni1), wfc  3 (l=2 m= 5)
     state #  23: atom   2 (Ni1), wfc  4 (l=0 m= 1)
     state #  24: atom   2 (Ni1), wfc  5 (l=1 m= 1)
     state #  25: atom   2 (Ni1), wfc  5 (l=1 m= 2)
     state #  26: atom   2 (Ni1), wfc  5 (l=1 m= 3)

 k =   0.0000000000  0.0000000000  0.0000000000
==== e(   1) =   -85.19997 eV ==== 
     psi = 0.987*[#   1]+0.008*[#  23]+0.005*[#  10]
    |psi|^2 = 1.000
==== e(   2) =   -83.91885 eV ==== 
     psi = 0.987*[#  14]+0.007*[#  10]+0.005*[#  23]
    |psi|^2 = 1.000
==== e(   3) =   -45.73246 eV ==== 
     psi = 0.945*[#   2]+0.034*[#   3]+0.011*[#   4]+0.008*[#  11]
    |psi|^2 = 1.000
==== e(   4) =   -45.69468 eV ==== 
     psi = 0.743*[#   4]+0.248*[#   3]+0.007*[#  13]+0.002*[#  12]
    |psi|^2 = 1.000
==== e(   5) =   -45.61613 eV ==== 
     psi = 0.701*[#   3]+0.234*[#   4]+0.044*[#   2]+0.008*[#  25]+0.007*[#  16]
          +0.003*[#  26]+0.002*[#  17]+0.001*[#  24]+0.001*[#  15]
    |psi|^2 = 1.000
==== e(   6) =   -44.45337 eV ==== 
     psi = 0.506*[#  16]+0.303*[#  15]+0.169*[#  17]+0.007*[#  12]+0.006*[#   3]
          +0.002*[#  13]+0.002*[#   4]+0.001*[#  11]+0.001*[#   2]
    |psi|^2 = 1.000
==== e(   7) =   -44.42796 eV ==== 
     psi = 0.686*[#  15]+0.228*[#  16]+0.076*[#  17]+0.007*[#  24]
    |psi|^2 = 1.000
==== e(   8) =   -44.41261 eV ==== 
     psi = 0.743*[#  17]+0.248*[#  16]+0.007*[#  26]+0.002*[#  25]
    |psi|^2 = 1.000
==== e(   9) =     8.68101 eV ==== 
     psi = 0.487*[#  10]+0.487*[#  23]+0.013*[#  14]+0.012*[#   1]
    |psi|^2 = 1.000
==== e(  10) =    12.14964 eV ==== 
     psi = 0.221*[#   9]+0.119*[#  22]+0.115*[#  10]+0.112*[#   6]+0.111*[#  23]
          +0.074*[#   8]+0.060*[#  19]+0.058*[#   5]+0.040*[#  21]+0.037*[#   7]
          +0.029*[#  18]+0.020*[#  20]
    |psi|^2 = 0.995
==== e(  11) =    13.88616 eV ==== 
     psi = 0.697*[#   5]+0.166*[#   9]+0.055*[#   8]+0.027*[#  19]+0.018*[#   6]
          +0.013*[#  22]+0.009*[#  20]+0.006*[#   7]+0.004*[#  21]
    |psi|^2 = 0.997
==== e(  12) =    13.90079 eV ==== 
     psi = 0.538*[#   7]+0.179*[#   6]+0.169*[#   8]+0.056*[#   9]+0.025*[#  20]
          +0.017*[#  21]+0.008*[#  19]+0.006*[#  22]
    |psi|^2 = 0.997
==== e(  13) =    14.61710 eV ==== 
     psi = 0.267*[#  22]+0.172*[#   9]+0.133*[#  19]+0.094*[#   6]+0.089*[#  21]
          +0.061*[#  18]+0.057*[#   8]+0.044*[#  20]+0.038*[#   5]+0.031*[#   7]
          +0.004*[#  23]+0.004*[#  10]
    |psi|^2 = 0.996
==== e(  14) =    14.86008 eV ==== 
     psi = 0.385*[#   6]+0.158*[#   5]+0.128*[#   7]+0.117*[#  18]+0.092*[#   9]
          +0.045*[#  22]+0.031*[#   8]+0.020*[#  19]+0.015*[#  21]+0.007*[#  20]
          
    |psi|^2 = 0.997
==== e(  15) =    14.86775 eV ==== 
     psi = 0.481*[#   8]+0.160*[#   9]+0.144*[#  20]+0.108*[#   7]+0.048*[#  19]
          +0.036*[#   6]+0.015*[#  21]+0.005*[#  22]
    |psi|^2 = 0.997
==== e(  16) =    15.66623 eV ==== 
     psi = 0.567*[#  20]+0.189*[#  19]+0.103*[#   7]+0.055*[#   8]+0.034*[#   6]
          +0.024*[#  21]+0.018*[#   9]+0.008*[#  22]
    |psi|^2 = 0.998
==== e(  17) =    15.67250 eV ==== 
     psi = 0.271*[#  19]+0.243*[#  22]+0.110*[#  18]+0.100*[#   6]+0.090*[#  20]
          +0.081*[#  21]+0.051*[#   9]+0.033*[#   7]+0.017*[#   8]
    |psi|^2 = 0.998
==== e(  18) =    17.49139 eV ==== 
     psi = 0.331*[#  12]+0.327*[#  25]+0.110*[#  13]+0.109*[#  26]+0.055*[#  11]
          +0.055*[#  24]+0.004*[#  16]+0.004*[#   3]+0.001*[#  17]+0.001*[#   4]
          
    |psi|^2 = 0.999

 k =   0.2000000000 -0.1154700538 -0.0816496581
==== e(   1) =   -85.19975 eV ==== 
     psi = 0.969*[#   1]+0.016*[#  25]+0.005*[#  26]+0.004*[#  23]+0.003*[#  24]
          +0.002*[#  10]
    |psi|^2 = 1.000
==== e(   2) =   -83.91883 eV ==== 
     psi = 0.969*[#  14]+0.016*[#  12]+0.005*[#  13]+0.003*[#  10]+0.003*[#  11]
          +0.002*[#  23]
    |psi|^2 = 1.000
==== e(   3) =   -45.73242 eV ==== 
     psi = 0.944*[#   2]+0.035*[#   3]+0.012*[#   4]+0.008*[#  11]
    |psi|^2 = 1.000
==== e(   4) =   -45.69469 eV ==== 
     psi = 0.743*[#   4]+0.248*[#   3]+0.007*[#  13]+0.002*[#  12]
    |psi|^2 = 1.000
==== e(   5) =   -45.61226 eV ==== 
     psi = 0.704*[#   3]+0.235*[#   4]+0.046*[#   2]+0.005*[#  25]+0.005*[#  16]
          +0.002*[#  17]+0.002*[#  26]+0.001*[#  23]
    |psi|^2 = 1.000
==== e(   6) =   -44.45758 eV ==== 
     psi = 0.533*[#  16]+0.273*[#  15]+0.178*[#  17]+0.004*[#   3]+0.004*[#  12]
          +0.001*[#   4]+0.001*[#  10]+0.001*[#  13]
    |psi|^2 = 1.000
==== e(   7) =   -44.42836 eV ==== 
     psi = 0.717*[#  15]+0.205*[#  16]+0.068*[#  17]+0.008*[#  24]
    |psi|^2 = 1.000
==== e(   8) =   -44.41278 eV ==== 
     psi = 0.743*[#  17]+0.248*[#  16]+0.007*[#  26]+0.002*[#  25]
    |psi|^2 = 1.000
==== e(   9) =     9.07463 eV ==== 
     psi = 0.409*[#  10]+0.407*[#  23]+0.051*[#  12]+0.051*[#  25]+0.017*[#  13]
          +0.017*[#  26]+0.015*[#  14]+0.014*[#   1]+0.009*[#  11]+0.009*[#  24]
          
    |psi|^2 = 1.000
==== e(  10) =    12.08335 eV ==== 
     psi = 0.190*[#   9]+0.131*[#  10]+0.131*[#  23]+0.102*[#  22]+0.096*[#   6]
          +0.063*[#   8]+0.052*[#  19]+0.050*[#   5]+0.034*[#  21]+0.032*[#   7]
          +0.025*[#  18]+0.024*[#  12]+0.021*[#  25]+0.017*[#  20]+0.008*[#  13]
          +0.007*[#  26]+0.004*[#  11]+0.004*[#  24]+0.001*[#   1]+0.001*[#  14]
          
    |psi|^2 = 0.996
==== e(  11) =    13.92181 eV ==== 
     psi = 0.708*[#   5]+0.168*[#   9]+0.056*[#   8]+0.020*[#   6]+0.018*[#  19]
          +0.010*[#  22]+0.007*[#   7]+0.006*[#  20]+0.003*[#  21]
    |psi|^2 = 0.997
==== e(  12) =    13.93657 eV ==== 
     psi = 0.549*[#   7]+0.183*[#   6]+0.169*[#   8]+0.056*[#   9]+0.018*[#  20]
          +0.011*[#  21]+0.006*[#  19]+0.004*[#  22]
    |psi|^2 = 0.997
==== e(  13) =    14.48719 eV ==== 
     psi = 0.228*[#  22]+0.200*[#   9]+0.116*[#  19]+0.102*[#   6]+0.076*[#  21]
          +0.067*[#   8]+0.054*[#  18]+0.044*[#   5]+0.039*[#  20]+0.034*[#   7]
          +0.015*[#  25]+0.007*[#  10]+0.006*[#  23]+0.005*[#  26]+0.002*[#  24]
          
    |psi|^2 = 0.995
==== e(  14) =    14.92949 eV ==== 
     psi = 0.403*[#   6]+0.157*[#   5]+0.134*[#   7]+0.094*[#   9]+0.093*[#  18]
          +0.043*[#  22]+0.031*[#   8]+0.020*[#  19]+0.014*[#  21]+0.007*[#  20]
          
    |psi|^2 = 0.997
==== e(  15) =    14.93899 eV ==== 
     psi = 0.493*[#   8]+0.164*[#   9]+0.130*[#  20]+0.115*[#   7]+0.043*[#  19]
          +0.038*[#   6]+0.010*[#  21]+0.003*[#  22]
    |psi|^2 = 0.997
==== e(  16) =    15.60605 eV ==== 
     psi = 0.587*[#  20]+0.196*[#  19]+0.084*[#   7]+0.056*[#   8]+0.028*[#   6]
          +0.021*[#  21]+0.019*[#   9]+0.007*[#  22]
    |psi|^2 = 0.998
==== e(  17) =    15.61279 eV ==== 
     psi = 0.272*[#  19]+0.252*[#  22]+0.122*[#  18]+0.091*[#  20]+0.090*[#   6]
          +0.084*[#  21]+0.042*[#   9]+0.030*[#   7]+0.014*[#   8]
    |psi|^2 = 0.998
==== e(  18) =    16.11623 eV ==== 
     psi = 0.238*[#  12]+0.223*[#  25]+0.079*[#  13]+0.075*[#  22]+0.074*[#  26]
          +0.040*[#  11]+0.039*[#  19]+0.037*[#  24]+0.033*[#  10]+0.032*[#  23]
          +0.025*[#  21]+0.025*[#   9]+0.019*[#  18]+0.013*[#  20]+0.012*[#   6]
          +0.008*[#   8]+0.006*[#   5]+0.004*[#   7]+0.004*[#  14]+0.003*[#   1]
          +0.003*[#  16]+0.003*[#   3]
    |psi|^2 = 0.999

 k =   0.4000000000 -0.2309401077 -0.1632993162
==== e(   1) =   -85.19942 eV ==== 
     psi = 0.947*[#   1]+0.034*[#  25]+0.011*[#  26]+0.006*[#  24]
    |psi|^2 = 1.000
==== e(   2) =   -83.91881 eV ==== 
     psi = 0.947*[#  14]+0.035*[#  12]+0.012*[#  13]+0.006*[#  11]
    |psi|^2 = 1.000
==== e(   3) =   -45.73209 eV ==== 
     psi = 0.942*[#   2]+0.036*[#   3]+0.012*[#   4]+0.008*[#  11]
    |psi|^2 = 1.000
==== e(   4) =   -45.69444 eV ==== 
     psi = 0.743*[#   4]+0.248*[#   3]+0.007*[#  13]+0.002*[#  12]
    |psi|^2 = 1.000
==== e(   5) =   -45.60598 eV ==== 
     psi = 0.709*[#   3]+0.236*[#   4]+0.049*[#   2]+0.003*[#  23]
    |psi|^2 = 1.000
==== e(   6) =   -44.46476 eV ==== 
     psi = 0.567*[#  16]+0.238*[#  15]+0.189*[#  17]+0.003*[#  10]
    |psi|^2 = 1.000
==== e(   7) =   -44.42868 eV ==== 
     psi = 0.753*[#  15]+0.178*[#  16]+0.059*[#  17]+0.008*[#  24]
    |psi|^2 = 1.000
==== e(   8) =   -44.41284 eV ==== 
     psi = 0.743*[#  17]+0.248*[#  16]+0.007*[#  26]+0.002*[#  25]
    |psi|^2 = 1.000
==== e(   9) =    10.16736 eV ==== 
     psi = 0.299*[#  10]+0.284*[#  23]+0.120*[#  25]+0.116*[#  12]+0.040*[#  26]
          +0.039*[#  13]+0.020*[#  24]+0.019*[#  11]+0.015*[#   1]+0.015*[#  14]
          +0.008*[#   9]+0.005*[#  22]+0.004*[#   6]+0.003*[#  19]+0.003*[#   8]
          +0.002*[#   5]+0.002*[#  21]+0.001*[#   7]+0.001*[#  18]
    |psi|^2 = 1.000
==== e(  10) =    11.49829 eV ==== 
     psi = 0.214*[#  23]+0.195*[#  10]+0.113*[#  12]+0.096*[#  25]+0.069*[#   9]
          +0.044*[#  22]+0.038*[#  13]+0.035*[#   6]+0.032*[#  26]+0.023*[#   8]
          +0.022*[#  19]+0.019*[#  11]+0.018*[#   5]+0.016*[#  24]+0.015*[#  21]
          +0.012*[#   7]+0.011*[#  18]+0.008*[#  14]+0.007*[#  20]+0.007*[#   1]
          +0.001*[#   3]+0.001*[#  16]
    |psi|^2 = 0.998
==== e(  11) =    13.98384 eV ==== 
     psi = 0.774*[#   5]+0.124*[#   9]+0.041*[#   8]+0.036*[#   6]+0.012*[#   7]
          +0.003*[#  22]+0.002*[#  25]+0.002*[#  19]+0.001*[#  21]
    |psi|^2 = 0.998
==== e(  12) =    13.99998 eV ==== 
     psi = 0.569*[#   7]+0.190*[#   6]+0.173*[#   8]+0.058*[#   9]+0.003*[#  20]
          +0.002*[#  21]+0.002*[#  26]
    |psi|^2 = 0.997
==== e(  13) =    14.06722 eV ==== 
     psi = 0.397*[#   9]+0.158*[#   6]+0.132*[#   8]+0.083*[#  25]+0.053*[#   7]
          +0.038*[#   5]+0.028*[#  26]+0.024*[#  22]+0.015*[#  24]+0.015*[#  10]
          +0.014*[#  19]+0.008*[#  21]+0.007*[#  12]+0.006*[#  18]+0.005*[#  23]
          +0.005*[#  20]+0.004*[#   1]+0.002*[#  13]+0.001*[#  11]
    |psi|^2 = 0.996
==== e(  14) =    14.79400 eV ==== 
     psi = 0.349*[#  22]+0.173*[#  19]+0.116*[#  21]+0.098*[#  12]+0.082*[#  18]
          +0.058*[#  20]+0.033*[#  13]+0.027*[#  25]+0.016*[#  11]+0.009*[#  26]
          +0.008*[#  23]+0.005*[#  10]+0.005*[#  14]+0.005*[#  24]+0.004*[#   9]
          +0.002*[#   6]+0.001*[#   8]+0.001*[#   1]
    |psi|^2 = 0.996
==== e(  15) =    15.07504 eV ==== 
     psi = 0.473*[#   6]+0.158*[#   7]+0.154*[#   5]+0.116*[#   9]+0.039*[#   8]
          +0.025*[#  18]+0.015*[#  22]+0.009*[#  19]+0.005*[#  21]+0.003*[#  20]
          
    |psi|^2 = 0.998
==== e(  16) =    15.08998 eV ==== 
     psi = 0.545*[#   8]+0.182*[#   9]+0.155*[#   7]+0.052*[#   6]+0.048*[#  20]
          +0.016*[#  19]+0.001*[#  21]
    |psi|^2 = 0.998
==== e(  17) =    15.47652 eV ==== 
     psi = 0.685*[#  20]+0.228*[#  19]+0.025*[#   8]+0.024*[#   7]+0.013*[#  21]
          +0.008*[#   9]+0.008*[#   6]+0.004*[#  22]
    |psi|^2 = 0.996
==== e(  18) =    15.48640 eV ==== 
     psi = 0.290*[#  19]+0.284*[#  22]+0.173*[#  18]+0.097*[#  20]+0.095*[#  21]
          +0.030*[#   6]+0.012*[#   9]+0.010*[#   7]+0.004*[#   8]+0.001*[#   5]
          
    |psi|^2 = 0.996

 k =   0.6000000000 -0.3464101615 -0.2449489743
==== e(   1) =   -85.19942 eV ==== 
     psi = 0.947*[#   1]+0.034*[#  25]+0.011*[#  26]+0.006*[#  24]
    |psi|^2 = 1.000
==== e(   2) =   -83.91881 eV ==== 
     psi = 0.947*[#  14]+0.035*[#  12]+0.012*[#  13]+0.006*[#  11]
    |psi|^2 = 1.000
==== e(   3) =   -45.73209 eV ==== 
     psi = 0.942*[#   2]+0.036*[#   3]+0.012*[#   4]+0.008*[#  11]
    |psi|^2 = 1.000
==== e(   4) =   -45.69444 eV ==== 
     psi = 0.743*[#   4]+0.248*[#   3]+0.007*[#  13]+0.002*[#  12]
    |psi|^2 = 1.000
==== e(   5) =   -45.60598 eV ==== 
     psi = 0.709*[#   3]+0.236*[#   4]+0.049*[#   2]+0.003*[#  23]
    |psi|^2 = 1.000
==== e(   6) =   -44.46476 eV ==== 
     psi = 0.567*[#  16]+0.238*[#  15]+0.189*[#  17]+0.003*[#  10]
    |psi|^2 = 1.000
==== e(   7) =   -44.42868 eV ==== 
     psi = 0.753*[#  15]+0.178*[#  16]+0.059*[#  17]+0.008*[#  24]
    |psi|^2 = 1.000
==== e(   8) =   -44.41284 eV ==== 
     psi = 0.743*[#  17]+0.248*[#  16]+0.007*[#  26]+0.002*[#  25]
    |psi|^2 = 1.000
==== e(   9) =    10.16736 eV ==== 
     psi = 0.299*[#  10]+0.284*[#  23]+0.120*[#  25]+0.116*[#  12]+0.040*[#  26]
          +0.039*[#  13]+0.020*[#  24]+0.019*[#  11]+0.015*[#   1]+0.015*[#  14]
          +0.008*[#   9]+0.005*[#  22]+0.004*[#   6]+0.003*[#  19]+0.003*[#   8]
          +0.002*[#   5]+0.002*[#  21]+0.001*[#   7]+0.001*[#  18]
    |psi|^2 = 1.000
==== e(  10) =    11.49829 eV ==== 
     psi = 0.214*[#  23]+0.195*[#  10]+0.113*[#  12]+0.096*[#  25]+0.069*[#   9]
          +0.044*[#  22]+0.038*[#  13]+0.035*[#   6]+0.032*[#  26]+0.023*[#   8]
          +0.022*[#  19]+0.019*[#  11]+0.018*[#   5]+0.016*[#  24]+0.015*[#  21]
          +0.012*[#   7]+0.011*[#  18]+0.008*[#  14]+0.007*[#  20]+0.007*[#   1]
          +0.001*[#   3]+0.001*[#  16]
    |psi|^2 = 0.998
==== e(  11) =    13.98384 eV ==== 
     psi = 0.774*[#   5]+0.124*[#   9]+0.041*[#   8]+0.036*[#   6]+0.012*[#   7]
          +0.003*[#  22]+0.002*[#  25]+0.002*[#  19]+0.001*[#  21]
    |psi|^2 = 0.998
==== e(  12) =    13.99998 eV ==== 
     psi = 0.569*[#   7]+0.190*[#   6]+0.173*[#   8]+0.058*[#   9]+0.003*[#  20]
          +0.002*[#  21]+0.002*[#  26]
    |psi|^2 = 0.997
==== e(  13) =    14.06722 eV ==== 
     psi = 0.397*[#   9]+0.158*[#   6]+0.132*[#   8]+0.083*[#  25]+0.053*[#   7]
          +0.038*[#   5]+0.028*[#  26]+0.024*[#  22]+0.015*[#  24]+0.015*[#  10]
          +0.014*[#  19]+0.008*[#  21]+0.007*[#  12]+0.006*[#  18]+0.005*[#  23]
          +0.005*[#  20]+0.004*[#   1]+0.002*[#  13]+0.001*[#  11]
    |psi|^2 = 0.996
==== e(  14) =    14.79400 eV ==== 
     psi = 0.349*[#  22]+0.173*[#  19]+0.116*[#  21]+0.098*[#  12]+0.082*[#  18]
          +0.058*[#  20]+0.033*[#  13]+0.027*[#  25]+0.016*[#  11]+0.009*[#  26]
          +0.008*[#  23]+0.005*[#  10]+0.005*[#  14]+0.005*[#  24]+0.004*[#   9]
          +0.002*[#   6]+0.001*[#   8]+0.001*[#   1]
    |psi|^2 = 0.996
==== e(  15) =    15.07504 eV ==== 
     psi = 0.473*[#   6]+0.158*[#   7]+0.154*[#   5]+0.116*[#   9]+0.039*[#   8]
          +0.025*[#  18]+0.015*[#  22]+0.009*[#  19]+0.005*[#  21]+0.003*[#  20]
          
    |psi|^2 = 0.998
==== e(  16) =    15.08998 eV ==== 
     psi = 0.545*[#   8]+0.182*[#   9]+0.155*[#   7]+0.052*[#   6]+0.048*[#  20]
          +0.016*[#  19]+0.001*[#  21]
    |psi|^2 = 0.998
==== e(  17) =    15.47652 eV ==== 
     psi = 0.685*[#  20]+0.228*[#  19]+0.025*[#   8]+0.024*[#   7]+0.013*[#  21]
          +0.008*[#   9]+0.008*[#   6]+0.004*[#  22]
    |psi|^2 = 0.996
==== e(  18) =    15.48640 eV ==== 
     psi = 0.290*[#  19]+0.284*[#  22]+0.173*[#  18]+0.097*[#  20]+0.095*[#  21]
          +0.030*[#   6]+0.012*[#   9]+0.010*[#   7]+0.004*[#   8]+0.001*[#   5]
          
    |psi|^2 = 0.996

 k =   0.8000000000 -0.4618802154 -0.3265986324
==== e(   1) =   -85.19975 eV ==== 
     psi = 0.969*[#   1]+0.016*[#  25]+0.005*[#  26]+0.004*[#  23]+0.003*[#  24]
          +0.002*[#  10]
    |psi|^2 = 1.000
==== e(   2) =   -83.91883 eV ==== 
     psi = 0.969*[#  14]+0.016*[#  12]+0.005*[#  13]+0.003*[#  10]+0.003*[#  11]
          +0.002*[#  23]
    |psi|^2 = 1.000
==== e(   3) =   -45.73242 eV ==== 
     psi = 0.944*[#   2]+0.035*[#   3]+0.012*[#   4]+0.008*[#  11]
    |psi|^2 = 1.000
==== e(   4) =   -45.69469 eV ==== 
     psi = 0.743*[#   4]+0.248*[#   3]+0.007*[#  13]+0.002*[#  12]
    |psi|^2 = 1.000
==== e(   5) =   -45.61226 eV ==== 
     psi = 0.704*[#   3]+0.235*[#   4]+0.046*[#   2]+0.005*[#  25]+0.005*[#  16]
          +0.002*[#  17]+0.002*[#  26]+0.001*[#  23]
    |psi|^2 = 1.000
==== e(   6) =   -44.45758 eV ==== 
     psi = 0.533*[#  16]+0.273*[#  15]+0.178*[#  17]+0.004*[#   3]+0.004*[#  12]
          +0.001*[#   4]+0.001*[#  10]+0.001*[#  13]
    |psi|^2 = 1.000
==== e(   7) =   -44.42836 eV ==== 
     psi = 0.717*[#  15]+0.205*[#  16]+0.068*[#  17]+0.008*[#  24]
    |psi|^2 = 1.000
==== e(   8) =   -44.41278 eV ==== 
     psi = 0.743*[#  17]+0.248*[#  16]+0.007*[#  26]+0.002*[#  25]
    |psi|^2 = 1.000
==== e(   9) =     9.07463 eV ==== 
     psi = 0.409*[#  10]+0.407*[#  23]+0.051*[#  12]+0.051*[#  25]+0.017*[#  13]
          +0.017*[#  26]+0.015*[#  14]+0.014*[#   1]+0.009*[#  11]+0.009*[#  24]
          
    |psi|^2 = 1.000
==== e(  10) =    12.08335 eV ==== 
     psi = 0.190*[#   9]+0.131*[#  10]+0.131*[#  23]+0.102*[#  22]+0.096*[#   6]
          +0.063*[#   8]+0.052*[#  19]+0.050*[#   5]+0.034*[#  21]+0.032*[#   7]
          +0.025*[#  18]+0.024*[#  12]+0.021*[#  25]+0.017*[#  20]+0.008*[#  13]
          +0.007*[#  26]+0.004*[#  11]+0.004*[#  24]+0.001*[#   1]+0.001*[#  14]
          
    |psi|^2 = 0.996
==== e(  11) =    13.92181 eV ==== 
     psi = 0.708*[#   5]+0.168*[#   9]+0.056*[#   8]+0.020*[#   6]+0.018*[#  19]
          +0.010*[#  22]+0.007*[#   7]+0.006*[#  20]+0.003*[#  21]
    |psi|^2 = 0.997
==== e(  12) =    13.93657 eV ==== 
     psi = 0.549*[#   7]+0.183*[#   6]+0.169*[#   8]+0.056*[#   9]+0.018*[#  20]
          +0.011*[#  21]+0.006*[#  19]+0.004*[#  22]
    |psi|^2 = 0.997
==== e(  13) =    14.48719 eV ==== 
     psi = 0.228*[#  22]+0.200*[#   9]+0.116*[#  19]+0.102*[#   6]+0.076*[#  21]
          +0.067*[#   8]+0.054*[#  18]+0.044*[#   5]+0.039*[#  20]+0.034*[#   7]
          +0.015*[#  25]+0.007*[#  10]+0.006*[#  23]+0.005*[#  26]+0.002*[#  24]
          
    |psi|^2 = 0.995
==== e(  14) =    14.92949 eV ==== 
     psi = 0.403*[#   6]+0.157*[#   5]+0.134*[#   7]+0.094*[#   9]+0.093*[#  18]
          +0.043*[#  22]+0.031*[#   8]+0.020*[#  19]+0.014*[#  21]+0.007*[#  20]
          
    |psi|^2 = 0.997
==== e(  15) =    14.93899 eV ==== 
     psi = 0.493*[#   8]+0.164*[#   9]+0.130*[#  20]+0.115*[#   7]+0.043*[#  19]
          +0.038*[#   6]+0.010*[#  21]+0.003*[#  22]
    |psi|^2 = 0.997
==== e(  16) =    15.60605 eV ==== 
     psi = 0.587*[#  20]+0.196*[#  19]+0.084*[#   7]+0.056*[#   8]+0.028*[#   6]
          +0.021*[#  21]+0.019*[#   9]+0.007*[#  22]
    |psi|^2 = 0.998
==== e(  17) =    15.61279 eV ==== 
     psi = 0.272*[#  19]+0.252*[#  22]+0.122*[#  18]+0.091*[#  20]+0.090*[#   6]
          +0.084*[#  21]+0.042*[#   9]+0.030*[#   7]+0.014*[#   8]
    |psi|^2 = 0.998
==== e(  18) =    16.11623 eV ==== 
     psi = 0.238*[#  12]+0.223*[#  25]+0.079*[#  13]+0.075*[#  22]+0.074*[#  26]
          +0.040*[#  11]+0.039*[#  19]+0.037*[#  24]+0.033*[#  10]+0.032*[#  23]
          +0.025*[#  21]+0.025*[#   9]+0.019*[#  18]+0.013*[#  20]+0.012*[#   6]
          +0.008*[#   8]+0.006*[#   5]+0.004*[#   7]+0.004*[#  14]+0.003*[#   1]
          +0.003*[#  16]+0.003*[#   3]
    |psi|^2 = 0.999

 k =   0.0000000000  0.4618802154 -0.1632993162
==== e(   1) =   -85.19114 eV ==== 
     psi = 0.960*[#   1]+0.016*[#  13]+0.006*[#  12]+0.006*[#  11]+0.006*[#  25]
          +0.004*[#  26]+0.002*[#  23]
    |psi|^2 = 1.000
==== e(   2) =   -83.90984 eV ==== 
     psi = 0.960*[#  14]+0.016*[#  26]+0.006*[#  25]+0.006*[#  24]+0.005*[#  12]
          +0.004*[#  13]+0.002*[#  10]
    |psi|^2 = 1.000
==== e(   3) =   -45.77276 eV ==== 
     psi = 0.627*[#   2]+0.256*[#   4]+0.111*[#   3]+0.002*[#  10]+0.001*[#  11]
          
    |psi|^2 = 1.000
==== e(   4) =   -45.73034 eV ==== 
     psi = 0.504*[#   4]+0.309*[#   2]+0.180*[#   3]+0.003*[#  11]+0.002*[#  13]
          
    |psi|^2 = 1.000
==== e(   5) =   -45.60425 eV ==== 
     psi = 0.698*[#   3]+0.233*[#   4]+0.055*[#   2]+0.004*[#  25]+0.004*[#  16]
          +0.002*[#  26]+0.001*[#  17]+0.001*[#  24]+0.001*[#  15]
    |psi|^2 = 1.000
==== e(   6) =   -44.48265 eV ==== 
     psi = 0.439*[#  17]+0.392*[#  15]+0.165*[#  16]+0.002*[#  23]
    |psi|^2 = 1.000
==== e(   7) =   -44.45057 eV ==== 
     psi = 0.450*[#  16]+0.324*[#  15]+0.214*[#  17]+0.003*[#  12]+0.003*[#   3]
          +0.002*[#  11]+0.001*[#  13]+0.001*[#   2]+0.001*[#   4]
    |psi|^2 = 1.000
==== e(   8) =   -44.43740 eV ==== 
     psi = 0.375*[#  16]+0.340*[#  17]+0.276*[#  15]+0.003*[#  24]+0.001*[#  26]
          +0.001*[#  12]+0.001*[#   3]
    |psi|^2 = 1.000
==== e(   9) =    10.17138 eV ==== 
     psi = 0.292*[#  10]+0.290*[#  23]+0.099*[#  26]+0.099*[#  13]+0.060*[#  12]
          +0.059*[#  25]+0.021*[#  24]+0.019*[#  11]+0.015*[#  14]+0.014*[#   1]
          +0.007*[#   8]+0.004*[#   9]+0.004*[#   7]+0.003*[#  21]+0.002*[#   5]
          +0.002*[#   6]+0.002*[#  22]+0.002*[#  20]+0.001*[#  19]
    |psi|^2 = 1.000
==== e(  10) =    12.75617 eV ==== 
     psi = 0.172*[#   6]+0.149*[#   7]+0.131*[#   5]+0.091*[#   9]+0.081*[#  19]
          +0.055*[#  23]+0.053*[#  20]+0.050*[#  10]+0.050*[#  22]+0.036*[#  18]
          +0.034*[#   8]+0.019*[#  26]+0.017*[#  21]+0.015*[#  13]+0.013*[#  24]
          +0.012*[#  11]+0.009*[#  12]+0.008*[#  25]
    |psi|^2 = 0.994
==== e(  11) =    13.71598 eV ==== 
     psi = 0.222*[#   8]+0.174*[#   9]+0.129*[#   7]+0.092*[#  20]+0.075*[#  22]
          +0.060*[#   6]+0.049*[#  25]+0.042*[#  21]+0.041*[#   5]+0.036*[#  12]
          +0.032*[#  19]+0.023*[#  26]+0.014*[#  13]+0.002*[#  11]+0.001*[#  18]
          
    |psi|^2 = 0.996
==== e(  12) =    13.75194 eV ==== 
     psi = 0.265*[#   8]+0.222*[#   7]+0.204*[#   9]+0.106*[#   6]+0.095*[#   5]
          +0.025*[#  13]+0.015*[#  25]+0.015*[#  11]+0.013*[#  10]+0.009*[#  12]
          +0.006*[#  21]+0.005*[#  26]+0.004*[#  22]+0.003*[#  18]+0.003*[#  23]
          +0.002*[#  24]+0.001*[#   1]
    |psi|^2 = 0.997
==== e(  13) =    14.36330 eV ==== 
     psi = 0.603*[#   5]+0.126*[#   8]+0.092*[#   9]+0.078*[#   7]+0.031*[#   6]
          +0.025*[#  19]+0.011*[#  21]+0.011*[#  22]+0.011*[#  20]+0.006*[#  18]
          +0.003*[#  11]
    |psi|^2 = 0.998
==== e(  14) =    14.80562 eV ==== 
     psi = 0.216*[#  19]+0.155*[#  22]+0.136*[#   6]+0.115*[#  20]+0.077*[#   7]
          +0.072*[#   9]+0.064*[#  18]+0.061*[#  21]+0.049*[#   5]+0.025*[#   8]
          +0.006*[#  26]+0.005*[#  23]+0.005*[#  24]+0.005*[#  25]+0.004*[#  10]
          +0.001*[#  12]
    |psi|^2 = 0.996
==== e(  15) =    14.93423 eV ==== 
     psi = 0.389*[#   6]+0.224*[#   7]+0.198*[#   9]+0.134*[#   8]+0.030*[#  18]
          +0.006*[#   5]+0.005*[#  21]+0.003*[#  22]+0.003*[#  20]+0.002*[#  24]
          +0.001*[#  19]
    |psi|^2 = 0.998
==== e(  16) =    15.53430 eV ==== 
     psi = 0.365*[#  20]+0.179*[#  22]+0.124*[#  19]+0.075*[#   8]+0.067*[#   9]
          +0.061*[#  21]+0.058*[#   7]+0.024*[#   6]+0.009*[#   5]+0.008*[#  18]
          +0.008*[#  26]+0.006*[#  24]+0.004*[#  12]+0.004*[#  25]+0.001*[#  10]
          +0.001*[#  13]+0.001*[#  23]
    |psi|^2 = 0.997
==== e(  17) =    15.91929 eV ==== 
     psi = 0.309*[#  19]+0.249*[#  20]+0.224*[#  22]+0.083*[#  18]+0.082*[#  21]
          +0.020*[#   5]+0.010*[#   9]+0.008*[#   7]+0.005*[#   6]+0.004*[#   8]
          +0.002*[#  24]
    |psi|^2 = 0.998
==== e(  18) =    16.47297 eV ==== 
     psi = 0.357*[#  21]+0.173*[#  18]+0.128*[#  22]+0.079*[#  12]+0.042*[#  25]
          +0.027*[#   8]+0.026*[#  13]+0.025*[#  20]+0.021*[#   7]+0.021*[#  26]
          +0.021*[#  24]+0.021*[#   9]+0.013*[#  11]+0.012*[#  19]+0.011*[#   6]
          +0.007*[#  10]+0.005*[#  23]+0.003*[#   5]+0.001*[#  14]
    |psi|^2 = 0.996

 k =   0.2000000000  0.3464101615 -0.2449489743
==== e(   1) =   -85.19108 eV ==== 
     psi = 0.960*[#   1]+0.017*[#  13]+0.007*[#  11]+0.006*[#  12]+0.004*[#  26]
          +0.003*[#  24]+0.002*[#  25]+0.001*[#  23]
    |psi|^2 = 1.000
==== e(   2) =   -83.90980 eV ==== 
     psi = 0.960*[#  14]+0.016*[#  26]+0.007*[#  24]+0.006*[#  25]+0.004*[#  13]
          +0.003*[#  11]+0.002*[#  12]+0.001*[#  10]
    |psi|^2 = 1.000
==== e(   3) =   -45.77223 eV ==== 
     psi = 0.625*[#   2]+0.258*[#   4]+0.114*[#   3]+0.002*[#  10]+0.001*[#  11]
          
    |psi|^2 = 1.000
==== e(   4) =   -45.73009 eV ==== 
     psi = 0.503*[#   4]+0.312*[#   2]+0.178*[#   3]+0.003*[#  11]+0.002*[#  13]
          
    |psi|^2 = 1.000
==== e(   5) =   -45.60462 eV ==== 
     psi = 0.696*[#   3]+0.232*[#   4]+0.057*[#   2]+0.005*[#  25]+0.005*[#  16]
          +0.002*[#  26]+0.002*[#  17]
    |psi|^2 = 1.000
==== e(   6) =   -44.48322 eV ==== 
     psi = 0.428*[#  17]+0.417*[#  15]+0.151*[#  16]+0.002*[#  23]
    |psi|^2 = 1.000
==== e(   7) =   -44.44965 eV ==== 
     psi = 0.460*[#  16]+0.290*[#  15]+0.236*[#  17]+0.004*[#  12]+0.004*[#   3]
          +0.002*[#  13]+0.001*[#   4]
    |psi|^2 = 1.000
==== e(   8) =   -44.43763 eV ==== 
     psi = 0.378*[#  16]+0.329*[#  17]+0.285*[#  15]+0.003*[#  24]+0.001*[#  12]
          +0.001*[#  26]
    |psi|^2 = 1.000
==== e(   9) =    10.06236 eV ==== 
     psi = 0.294*[#  10]+0.292*[#  23]+0.100*[#  26]+0.097*[#  13]+0.051*[#  24]
          +0.050*[#  11]+0.033*[#  25]+0.032*[#  12]+0.016*[#  14]+0.015*[#   1]
          +0.005*[#   7]+0.003*[#   9]+0.003*[#  20]+0.002*[#  22]+0.002*[#   6]
          +0.001*[#   8]
    |psi|^2 = 1.000
==== e(  10) =    12.87161 eV ==== 
     psi = 0.163*[#   5]+0.158*[#   9]+0.134*[#   6]+0.091*[#   7]+0.075*[#   8]
          +0.069*[#  22]+0.056*[#  19]+0.051*[#  10]+0.050*[#  23]+0.028*[#  18]
          +0.024*[#  20]+0.023*[#  21]+0.022*[#  26]+0.018*[#  13]+0.013*[#  25]
          +0.010*[#  12]+0.005*[#  24]+0.005*[#  11]
    |psi|^2 = 0.996
==== e(  11) =    13.61385 eV ==== 
     psi = 0.344*[#   7]+0.151*[#   9]+0.121*[#   8]+0.116*[#   6]+0.081*[#   5]
          +0.057*[#  22]+0.032*[#  21]+0.025*[#  20]+0.022*[#  13]+0.011*[#  12]
          +0.009*[#  19]+0.007*[#  18]+0.006*[#  11]+0.005*[#  10]+0.004*[#  26]
          +0.002*[#  24]+0.001*[#  25]
    |psi|^2 = 0.995
==== e(  12) =    13.88918 eV ==== 
     psi = 0.341*[#   8]+0.119*[#   9]+0.114*[#   6]+0.094*[#  20]+0.081*[#   7]
          +0.055*[#  25]+0.049*[#  19]+0.049*[#   5]+0.033*[#  12]+0.021*[#  26]
          +0.014*[#  18]+0.011*[#  13]+0.004*[#  11]+0.004*[#  24]+0.003*[#  22]
          +0.002*[#  21]
    |psi|^2 = 0.996
==== e(  13) =    14.39066 eV ==== 
     psi = 0.591*[#   5]+0.116*[#   8]+0.107*[#   9]+0.094*[#   7]+0.032*[#   6]
          +0.021*[#  19]+0.009*[#  20]+0.009*[#  22]+0.009*[#  21]+0.004*[#  18]
          +0.003*[#  11]+0.001*[#  13]
    |psi|^2 = 0.998
==== e(  14) =    14.83582 eV ==== 
     psi = 0.215*[#  19]+0.160*[#  20]+0.145*[#   6]+0.126*[#  22]+0.094*[#  18]
          +0.088*[#   9]+0.054*[#   7]+0.042*[#  21]+0.039*[#   8]+0.020*[#   5]
          +0.004*[#  10]+0.003*[#  23]+0.002*[#  25]+0.002*[#  26]
    |psi|^2 = 0.995
==== e(  15) =    14.91208 eV ==== 
     psi = 0.352*[#   6]+0.187*[#   7]+0.180*[#   9]+0.151*[#   8]+0.040*[#  18]
          +0.033*[#   5]+0.018*[#  19]+0.015*[#  20]+0.011*[#  22]+0.005*[#  21]
          +0.003*[#  24]
    |psi|^2 = 0.998
==== e(  16) =    15.44422 eV ==== 
     psi = 0.291*[#  20]+0.203*[#  22]+0.101*[#  19]+0.098*[#   9]+0.095*[#  21]
          +0.090*[#   7]+0.062*[#   8]+0.031*[#   6]+0.008*[#  26]+0.005*[#  25]
          +0.005*[#   5]+0.004*[#  23]+0.002*[#  24]+0.001*[#  10]
    |psi|^2 = 0.997
==== e(  17) =    15.97963 eV ==== 
     psi = 0.310*[#  19]+0.241*[#  20]+0.205*[#  22]+0.078*[#  21]+0.060*[#  18]
          +0.033*[#   6]+0.026*[#   7]+0.024*[#   9]+0.010*[#   5]+0.009*[#   8]
          +0.002*[#  24]
    |psi|^2 = 0.998
==== e(  18) =    16.37070 eV ==== 
     psi = 0.373*[#  21]+0.145*[#  22]+0.112*[#  18]+0.096*[#  12]+0.062*[#  20]
          +0.058*[#  19]+0.051*[#  25]+0.032*[#  13]+0.019*[#  26]+0.015*[#  24]
          +0.012*[#  11]+0.005*[#   7]+0.004*[#   8]+0.003*[#  23]+0.003*[#   9]
          +0.002*[#   6]+0.001*[#  10]
    |psi|^2 = 0.996

 k =   0.4000000000  0.2309401077 -0.3265986324
==== e(   1) =   -85.19086 eV ==== 
     psi = 0.949*[#   1]+0.014*[#  13]+0.012*[#  25]+0.006*[#  11]+0.006*[#  26]
          +0.006*[#  24]+0.005*[#  12]+0.001*[#  10]
    |psi|^2 = 1.000
==== e(   2) =   -83.90979 eV ==== 
     psi = 0.950*[#  14]+0.014*[#  26]+0.012*[#  12]+0.006*[#  24]+0.006*[#  13]
          +0.006*[#  11]+0.005*[#  25]+0.001*[#  23]
    |psi|^2 = 1.000
==== e(   3) =   -45.77228 eV ==== 
     psi = 0.616*[#   2]+0.262*[#   4]+0.117*[#   3]+0.002*[#  10]+0.001*[#  11]
          
    |psi|^2 = 1.000
==== e(   4) =   -45.73006 eV ==== 
     psi = 0.499*[#   4]+0.318*[#   2]+0.177*[#   3]+0.003*[#  11]+0.002*[#  13]
          
    |psi|^2 = 1.000
==== e(   5) =   -45.60104 eV ==== 
     psi = 0.698*[#   3]+0.233*[#   4]+0.060*[#   2]+0.003*[#  25]+0.002*[#  16]
          +0.001*[#  26]+0.001*[#  23]+0.001*[#  17]
    |psi|^2 = 1.000
==== e(   6) =   -44.48314 eV ==== 
     psi = 0.448*[#  15]+0.410*[#  17]+0.138*[#  16]+0.002*[#  23]
    |psi|^2 = 1.000
==== e(   7) =   -44.45263 eV ==== 
     psi = 0.545*[#  16]+0.258*[#  17]+0.187*[#  15]+0.003*[#  12]+0.002*[#   3]
          +0.002*[#  13]+0.001*[#   4]
    |psi|^2 = 1.000
==== e(   8) =   -44.43845 eV ==== 
     psi = 0.360*[#  15]+0.326*[#  17]+0.308*[#  16]+0.004*[#  24]+0.001*[#  26]
          
    |psi|^2 = 1.000
==== e(   9) =    10.62602 eV ==== 
     psi = 0.245*[#  23]+0.244*[#  10]+0.091*[#  26]+0.089*[#  13]+0.072*[#  24]
          +0.072*[#  11]+0.055*[#  12]+0.053*[#  25]+0.016*[#  14]+0.015*[#   1]
          +0.011*[#   7]+0.008*[#  20]+0.006*[#   6]+0.005*[#   8]+0.005*[#  19]
          +0.003*[#   9]+0.003*[#  21]+0.002*[#  22]
    |psi|^2 = 1.000
==== e(  10) =    12.85045 eV ==== 
     psi = 0.168*[#   5]+0.160*[#   9]+0.121*[#   8]+0.078*[#  10]+0.071*[#  23]
          +0.065*[#   6]+0.056*[#  12]+0.056*[#  25]+0.043*[#   7]+0.043*[#  13]
          +0.041*[#  22]+0.041*[#  26]+0.017*[#  19]+0.014*[#  21]+0.011*[#  18]
          +0.006*[#  20]+0.002*[#   1]+0.002*[#  14]
    |psi|^2 = 0.997
==== e(  11) =    13.52179 eV ==== 
     psi = 0.252*[#   7]+0.175*[#   8]+0.127*[#   9]+0.107*[#   5]+0.095*[#  22]
          +0.088*[#   6]+0.038*[#  21]+0.025*[#  18]+0.022*[#  19]+0.017*[#  13]
          +0.011*[#  20]+0.010*[#  26]+0.006*[#  11]+0.006*[#  12]+0.005*[#  10]
          +0.004*[#  24]+0.003*[#  25]+0.002*[#  23]
    |psi|^2 = 0.995
==== e(  12) =    14.03023 eV ==== 
     psi = 0.245*[#   6]+0.232*[#   7]+0.168*[#   8]+0.064*[#  20]+0.058*[#  25]
          +0.057*[#   9]+0.056*[#  19]+0.039*[#  12]+0.019*[#  26]+0.016*[#  13]
          +0.010*[#  18]+0.009*[#  21]+0.007*[#  24]+0.005*[#  10]+0.005*[#  22]
          +0.002*[#   1]+0.001*[#   5]+0.001*[#  11]
    |psi|^2 = 0.996
==== e(  13) =    14.46483 eV ==== 
     psi = 0.604*[#   5]+0.113*[#   7]+0.112*[#   9]+0.106*[#   8]+0.039*[#   6]
          +0.007*[#  19]+0.004*[#  20]+0.004*[#  22]+0.003*[#  11]+0.003*[#  21]
          +0.001*[#  18]
    |psi|^2 = 0.999
==== e(  14) =    14.60363 eV ==== 
     psi = 0.208*[#   9]+0.132*[#  18]+0.120*[#  19]+0.109*[#  20]+0.095*[#  22]
          +0.073*[#   6]+0.070*[#   8]+0.053*[#  21]+0.041*[#   7]+0.025*[#  25]
          +0.016*[#  10]+0.015*[#  23]+0.014*[#   5]+0.010*[#  26]+0.008*[#  12]
          +0.003*[#  13]+0.002*[#  24]+0.001*[#  11]
    |psi|^2 = 0.993
==== e(  15) =    14.90519 eV ==== 
     psi = 0.356*[#   6]+0.170*[#   7]+0.150*[#   9]+0.144*[#   8]+0.052*[#   5]
          +0.037*[#  19]+0.031*[#  20]+0.027*[#  22]+0.016*[#  18]+0.010*[#  21]
          +0.003*[#  24]+0.001*[#  26]
    |psi|^2 = 0.998
==== e(  16) =    15.18229 eV ==== 
     psi = 0.360*[#  20]+0.171*[#  19]+0.089*[#  22]+0.081*[#   7]+0.077*[#  21]
          +0.060*[#   9]+0.055*[#   8]+0.034*[#   6]+0.013*[#  26]+0.012*[#  23]
          +0.011*[#  12]+0.007*[#  25]+0.005*[#  18]+0.004*[#  13]+0.004*[#  10]
          +0.004*[#  11]+0.003*[#  24]+0.002*[#   5]+0.001*[#  14]
    |psi|^2 = 0.994
==== e(  17) =    16.00663 eV ==== 
     psi = 0.386*[#  19]+0.316*[#  20]+0.063*[#   6]+0.052*[#  21]+0.039*[#  12]
          +0.026*[#   7]+0.017*[#  22]+0.014*[#   8]+0.014*[#  25]+0.013*[#  13]
          +0.011*[#   9]+0.011*[#  23]+0.007*[#  10]+0.006*[#  24]+0.006*[#  18]
          +0.005*[#  11]+0.005*[#  26]+0.003*[#   5]
    |psi|^2 = 0.998
==== e(  18) =    16.01830 eV ==== 
     psi = 0.413*[#  22]+0.255*[#  21]+0.075*[#  18]+0.058*[#   8]+0.037*[#   9]
          +0.036*[#  12]+0.025*[#  19]+0.017*[#  20]+0.016*[#  25]+0.013*[#   7]
          +0.012*[#  13]+0.010*[#  23]+0.009*[#   6]+0.007*[#  10]+0.006*[#  26]
          +0.004*[#   5]+0.004*[#  11]
    |psi|^2 = 0.998

 k =   0.6000000000  0.1154700538 -0.4082482905
==== e(   1) =   -85.19076 eV ==== 
     psi = 0.943*[#   1]+0.021*[#  25]+0.012*[#  13]+0.007*[#  26]+0.005*[#  11]
          +0.005*[#  24]+0.005*[#  12]+0.002*[#  10]
    |psi|^2 = 1.000
==== e(   2) =   -83.90984 eV ==== 
     psi = 0.943*[#  14]+0.021*[#  12]+0.013*[#  26]+0.007*[#  13]+0.005*[#  11]
          +0.005*[#  24]+0.005*[#  25]+0.002*[#  23]
    |psi|^2 = 1.000
==== e(   3) =   -45.77292 eV ==== 
     psi = 0.614*[#   2]+0.264*[#   4]+0.117*[#   3]+0.001*[#  10]+0.001*[#  11]
          +0.001*[#  25]
    |psi|^2 = 1.000
==== e(   4) =   -45.73024 eV ==== 
     psi = 0.496*[#   4]+0.320*[#   2]+0.177*[#   3]+0.003*[#  11]+0.002*[#  13]
          
    |psi|^2 = 1.000
==== e(   5) =   -45.59858 eV ==== 
     psi = 0.701*[#   3]+0.234*[#   4]+0.060*[#   2]+0.002*[#  23]+0.001*[#  26]
          
    |psi|^2 = 1.000
==== e(   6) =   -44.48236 eV ==== 
     psi = 0.449*[#  15]+0.408*[#  17]+0.138*[#  16]+0.001*[#  12]+0.001*[#  23]
          
    |psi|^2 = 1.000
==== e(   7) =   -44.45586 eV ==== 
     psi = 0.578*[#  16]+0.254*[#  17]+0.162*[#  15]+0.002*[#  10]+0.001*[#  13]
          
    |psi|^2 = 1.000
==== e(   8) =   -44.43864 eV ==== 
     psi = 0.384*[#  15]+0.332*[#  17]+0.278*[#  16]+0.004*[#  24]+0.001*[#  26]
          
    |psi|^2 = 1.000
==== e(   9) =    11.64724 eV ==== 
     psi = 0.195*[#  23]+0.153*[#  10]+0.094*[#  12]+0.073*[#  26]+0.072*[#  13]
          +0.071*[#  11]+0.069*[#  25]+0.068*[#  24]+0.039*[#   6]+0.039*[#   7]
          +0.027*[#  20]+0.026*[#   8]+0.024*[#  19]+0.012*[#  14]+0.009*[#   1]
          +0.009*[#   9]+0.008*[#  21]+0.003*[#  22]+0.002*[#  18]
    |psi|^2 = 0.998
==== e(  10) =    12.14233 eV ==== 
     psi = 0.184*[#  10]+0.137*[#  25]+0.132*[#  23]+0.131*[#  12]+0.087*[#  13]
          +0.077*[#   8]+0.075*[#  26]+0.068*[#   5]+0.044*[#   9]+0.012*[#   7]
          +0.011*[#  21]+0.010*[#   1]+0.007*[#  14]+0.007*[#  22]+0.007*[#   6]
          +0.005*[#  18]+0.001*[#  16]+0.001*[#   3]
    |psi|^2 = 0.999
==== e(  11) =    13.46975 eV ==== 
     psi = 0.209*[#   7]+0.163*[#   5]+0.156*[#   8]+0.109*[#  22]+0.071*[#   6]
          +0.059*[#   9]+0.047*[#  21]+0.040*[#  18]+0.030*[#  19]+0.026*[#  25]
          +0.022*[#  26]+0.016*[#  13]+0.015*[#  10]+0.010*[#  20]+0.006*[#  12]
          +0.005*[#  11]+0.005*[#  23]+0.002*[#   1]
    |psi|^2 = 0.994
==== e(  12) =    13.92911 eV ==== 
     psi = 0.361*[#   9]+0.202*[#   6]+0.129*[#   8]+0.069*[#   7]+0.060*[#   5]
          +0.047*[#  21]+0.039*[#  25]+0.020*[#  22]+0.018*[#  19]+0.014*[#  26]
          +0.011*[#  24]+0.007*[#  10]+0.006*[#  20]+0.005*[#  18]+0.003*[#  12]
          +0.002*[#  11]+0.002*[#  13]
    |psi|^2 = 0.996
==== e(  13) =    14.37141 eV ==== 
     psi = 0.315*[#   7]+0.151*[#   6]+0.105*[#  22]+0.083*[#   9]+0.080*[#  19]
          +0.079*[#   8]+0.062*[#  18]+0.038*[#  20]+0.038*[#  21]+0.016*[#  23]
          +0.007*[#  26]+0.006*[#  13]+0.005*[#  24]+0.004*[#  25]+0.003*[#  12]
          +0.002*[#  11]+0.001*[#  10]
    |psi|^2 = 0.995
==== e(  14) =    14.49212 eV ==== 
     psi = 0.632*[#   5]+0.126*[#   8]+0.117*[#   9]+0.085*[#   7]+0.029*[#   6]
          +0.002*[#  11]+0.002*[#  24]+0.001*[#  22]
    |psi|^2 = 0.999
==== e(  15) =    14.90947 eV ==== 
     psi = 0.373*[#   6]+0.198*[#   7]+0.168*[#   9]+0.128*[#   8]+0.045*[#  19]
          +0.029*[#  20]+0.025*[#  22]+0.014*[#   5]+0.014*[#  21]
    |psi|^2 = 0.998
==== e(  16) =    15.14627 eV ==== 
     psi = 0.515*[#  20]+0.238*[#  19]+0.054*[#  18]+0.049*[#  22]+0.021*[#  10]
          +0.020*[#  21]+0.017*[#  26]+0.012*[#  24]+0.010*[#  12]+0.009*[#   8]
          +0.009*[#   7]+0.008*[#  25]+0.007*[#  23]+0.005*[#   6]+0.005*[#  11]
          +0.005*[#  13]+0.005*[#   9]+0.002*[#  14]
    |psi|^2 = 0.992
==== e(  17) =    15.97455 eV ==== 
     psi = 0.299*[#  19]+0.245*[#  20]+0.184*[#  22]+0.094*[#  18]+0.066*[#  21]
          +0.049*[#   6]+0.022*[#   7]+0.015*[#   9]+0.013*[#   8]+0.008*[#   5]
          +0.001*[#  24]
    |psi|^2 = 0.998
==== e(  18) =    16.04867 eV ==== 
     psi = 0.254*[#  22]+0.208*[#   8]+0.108*[#  21]+0.087*[#  19]+0.069*[#   9]
          +0.053*[#   6]+0.051*[#  12]+0.047*[#  20]+0.032*[#  23]+0.025*[#   5]
          +0.024*[#   7]+0.017*[#  13]+0.010*[#  11]+0.004*[#  26]+0.003*[#  18]
          +0.003*[#  14]+0.001*[#  24]+0.001*[#  25]
    |psi|^2 = 0.999

 k =   0.8000000000  0.0000000000 -0.4898979486
==== e(   1) =   -85.19091 eV ==== 
     psi = 0.949*[#   1]+0.017*[#  25]+0.013*[#  13]+0.006*[#  26]+0.006*[#  12]
          +0.004*[#  11]+0.002*[#  24]+0.001*[#  10]
    |psi|^2 = 1.000
==== e(   2) =   -83.90987 eV ==== 
     psi = 0.949*[#  14]+0.017*[#  12]+0.013*[#  26]+0.006*[#  13]+0.005*[#  25]
          +0.005*[#  24]+0.002*[#  11]+0.001*[#  23]
    |psi|^2 = 1.000
==== e(   3) =   -45.77322 eV ==== 
     psi = 0.621*[#   2]+0.260*[#   4]+0.113*[#   3]+0.002*[#  11]+0.001*[#  10]
          +0.001*[#  25]
    |psi|^2 = 1.000
==== e(   4) =   -45.73043 eV ==== 
     psi = 0.500*[#   4]+0.315*[#   2]+0.178*[#   3]+0.003*[#  11]+0.002*[#  13]
          
    |psi|^2 = 1.000
==== e(   5) =   -45.60058 eV ==== 
     psi = 0.701*[#   3]+0.234*[#   4]+0.057*[#   2]+0.002*[#  23]+0.001*[#  26]
          +0.001*[#  16]+0.001*[#  25]+0.001*[#  24]
    |psi|^2 = 1.000
==== e(   6) =   -44.48201 eV ==== 
     psi = 0.430*[#  17]+0.408*[#  15]+0.156*[#  16]+0.002*[#  12]+0.001*[#  23]
          
    |psi|^2 = 1.000
==== e(   7) =   -44.45448 eV ==== 
     psi = 0.528*[#  16]+0.240*[#  15]+0.224*[#  17]+0.001*[#  11]+0.001*[#  10]
          +0.001*[#  13]
    |psi|^2 = 1.000
==== e(   8) =   -44.43812 eV ==== 
     psi = 0.344*[#  15]+0.340*[#  17]+0.308*[#  16]+0.004*[#  24]+0.002*[#  26]
          
    |psi|^2 = 1.000
==== e(   9) =    10.95280 eV ==== 
     psi = 0.240*[#  23]+0.235*[#  10]+0.121*[#  12]+0.110*[#  25]+0.096*[#  13]
          +0.093*[#  26]+0.027*[#   8]+0.014*[#  14]+0.013*[#   1]+0.013*[#   5]
          +0.009*[#   9]+0.007*[#  21]+0.004*[#   7]+0.003*[#  24]+0.003*[#  18]
          +0.002*[#  22]+0.002*[#   6]+0.002*[#  11]
    |psi|^2 = 0.999
==== e(  10) =    12.49721 eV ==== 
     psi = 0.148*[#   6]+0.138*[#   7]+0.093*[#  10]+0.092*[#  23]+0.072*[#  19]
          +0.065*[#  20]+0.050*[#  12]+0.045*[#   5]+0.044*[#  25]+0.038*[#  13]
          +0.037*[#  11]+0.036*[#  26]+0.035*[#  24]+0.030*[#   9]+0.019*[#  18]
          +0.018*[#   8]+0.015*[#  22]+0.010*[#  21]+0.003*[#  14]+0.003*[#   1]
          
    |psi|^2 = 0.994
==== e(  11) =    13.49907 eV ==== 
     psi = 0.299*[#   8]+0.199*[#   5]+0.106*[#   9]+0.084*[#  22]+0.058*[#  25]
          +0.053*[#   7]+0.043*[#  21]+0.026*[#  26]+0.020*[#  18]+0.019*[#   6]
          +0.018*[#  10]+0.016*[#  12]+0.015*[#  20]+0.013*[#  13]+0.013*[#  11]
          +0.011*[#  19]+0.003*[#   1]+0.001*[#  24]
    |psi|^2 = 0.996
==== e(  12) =    13.89328 eV ==== 
     psi = 0.389*[#   9]+0.238*[#   7]+0.130*[#   8]+0.110*[#   6]+0.035*[#  21]
          +0.021*[#  13]+0.018*[#  22]+0.013*[#  20]+0.013*[#  12]+0.010*[#  19]
          +0.005*[#  18]+0.004*[#  11]+0.004*[#  25]+0.003*[#   5]+0.001*[#  10]
          +0.001*[#  26]
    |psi|^2 = 0.996
==== e(  13) =    14.42077 eV ==== 
     psi = 0.623*[#   5]+0.129*[#   8]+0.092*[#   9]+0.074*[#   7]+0.033*[#   6]
          +0.016*[#  19]+0.009*[#  22]+0.008*[#  20]+0.007*[#  21]+0.003*[#  18]
          +0.002*[#  11]
    |psi|^2 = 0.998
==== e(  14) =    14.54360 eV ==== 
     psi = 0.181*[#   7]+0.178*[#   6]+0.172*[#  22]+0.141*[#  19]+0.067*[#  21]
          +0.050*[#  20]+0.046*[#   5]+0.034*[#  18]+0.024*[#   9]+0.018*[#  26]
          +0.017*[#  25]+0.017*[#   8]+0.016*[#  24]+0.015*[#  23]+0.012*[#  10]
          +0.003*[#  13]+0.002*[#  11]+0.002*[#  12]
    |psi|^2 = 0.996
==== e(  15) =    14.93857 eV ==== 
     psi = 0.395*[#   6]+0.232*[#   7]+0.199*[#   9]+0.125*[#   8]+0.016*[#  19]
          +0.009*[#  21]+0.008*[#  18]+0.006*[#  20]+0.006*[#  22]
    |psi|^2 = 0.998
==== e(  16) =    15.37253 eV ==== 
     psi = 0.492*[#  20]+0.187*[#  19]+0.090*[#  22]+0.056*[#  18]+0.032*[#  21]
          +0.018*[#   8]+0.018*[#  10]+0.016*[#  26]+0.014*[#  24]+0.012*[#   7]
          +0.012*[#  12]+0.012*[#   9]+0.011*[#  25]+0.006*[#   6]+0.005*[#  13]
          +0.005*[#  11]+0.004*[#  23]+0.002*[#   5]+0.001*[#  14]
    |psi|^2 = 0.994
==== e(  17) =    15.91007 eV ==== 
     psi = 0.296*[#  19]+0.246*[#  20]+0.225*[#  22]+0.106*[#  18]+0.080*[#  21]
          +0.018*[#   5]+0.009*[#   6]+0.009*[#   8]+0.003*[#   7]+0.003*[#   9]
          +0.002*[#  24]
    |psi|^2 = 0.998
==== e(  18) =    16.38445 eV ==== 
     psi = 0.180*[#   8]+0.152*[#  22]+0.128*[#  21]+0.103*[#  18]+0.071*[#  12]
          +0.070*[#   9]+0.047*[#   6]+0.040*[#   7]+0.034*[#  23]+0.027*[#   5]
          +0.024*[#  13]+0.023*[#  19]+0.023*[#  25]+0.021*[#  26]+0.020*[#  24]
          +0.015*[#  11]+0.008*[#  10]+0.008*[#  20]+0.003*[#  14]
    |psi|^2 = 0.999

 k =   0.0000000000  0.9237604307 -0.3265986324
==== e(   1) =   -85.17788 eV ==== 
     psi = 0.987*[#   1]+0.004*[#  13]+0.002*[#  10]+0.002*[#  25]+0.001*[#  11]
          +0.001*[#  12]+0.001*[#  23]+0.001*[#  26]
    |psi|^2 = 1.000
==== e(   2) =   -83.89639 eV ==== 
     psi = 0.987*[#  14]+0.004*[#  26]+0.002*[#  23]+0.002*[#  12]+0.001*[#  24]
          +0.001*[#  25]+0.001*[#  10]+0.001*[#  13]
    |psi|^2 = 1.000
==== e(   3) =   -45.86659 eV ==== 
     psi = 0.460*[#   4]+0.357*[#   2]+0.173*[#   3]+0.002*[#  13]+0.002*[#  25]
          +0.001*[#  16]
    |psi|^2 = 1.000
==== e(   4) =   -45.75950 eV ==== 
     psi = 0.568*[#   2]+0.301*[#   4]+0.126*[#   3]+0.003*[#  11]
    |psi|^2 = 1.000
==== e(   5) =   -45.58935 eV ==== 
     psi = 0.691*[#   3]+0.231*[#   4]+0.067*[#   2]+0.002*[#  26]+0.002*[#  17]
          +0.002*[#  15]+0.002*[#  24]+0.001*[#  16]+0.001*[#  25]
    |psi|^2 = 1.000
==== e(   6) =   -44.58161 eV ==== 
     psi = 0.522*[#  17]+0.273*[#  15]+0.195*[#  16]+0.002*[#   3]+0.002*[#  12]
          +0.002*[#  26]
    |psi|^2 = 1.000
==== e(   7) =   -44.46670 eV ==== 
     psi = 0.687*[#  15]+0.226*[#  17]+0.082*[#  16]+0.003*[#  24]
    |psi|^2 = 1.000
==== e(   8) =   -44.43719 eV ==== 
     psi = 0.715*[#  16]+0.244*[#  17]+0.033*[#  15]+0.002*[#  13]+0.001*[#  12]
          +0.001*[#   4]+0.001*[#  11]+0.001*[#   3]
    |psi|^2 = 1.000
==== e(   9) =    11.92070 eV ==== 
     psi = 0.263*[#   8]+0.155*[#   5]+0.108*[#   7]+0.094*[#  23]+0.092*[#   9]
          +0.086*[#  10]+0.050*[#  22]+0.041*[#   6]+0.021*[#  21]+0.019*[#  19]
          +0.017*[#  13]+0.015*[#  20]+0.015*[#  12]+0.008*[#  26]+0.003*[#  24]
          +0.003*[#  25]+0.002*[#  11]
    |psi|^2 = 0.994
==== e(  10) =    12.17440 eV ==== 
     psi = 0.276*[#   7]+0.176*[#   6]+0.158*[#  20]+0.090*[#  19]+0.071*[#   8]
          +0.045*[#  23]+0.036*[#  10]+0.036*[#   9]+0.034*[#  21]+0.023*[#  22]
          +0.009*[#  12]+0.008*[#  25]+0.007*[#   5]+0.004*[#  18]+0.003*[#  13]
          +0.003*[#  26]+0.002*[#  24]+0.002*[#  11]
    |psi|^2 = 0.985
==== e(  11) =    13.35688 eV ==== 
     psi = 0.211*[#   9]+0.135*[#  21]+0.105*[#   5]+0.099*[#   8]+0.094*[#  18]
          +0.060*[#   6]+0.058*[#  10]+0.052*[#  22]+0.041*[#  23]+0.033*[#  26]
          +0.029*[#  20]+0.028*[#  25]+0.020*[#   7]+0.010*[#  19]+0.005*[#  13]
          +0.003*[#  24]+0.002*[#  11]+0.002*[#  12]
    |psi|^2 = 0.989
==== e(  12) =    14.41017 eV ==== 
     psi = 0.305*[#   5]+0.243*[#   6]+0.163*[#   8]+0.082*[#   7]+0.068*[#   9]
          +0.057*[#  19]+0.023*[#  20]+0.022*[#  21]+0.018*[#  22]+0.016*[#  18]
          
    |psi|^2 = 0.997
==== e(  13) =    14.55753 eV ==== 
     psi = 0.290*[#  20]+0.237*[#  19]+0.135*[#   6]+0.135*[#   7]+0.069*[#  18]
          +0.040*[#   8]+0.024*[#   5]+0.024*[#   9]+0.018*[#  21]+0.017*[#  22]
          +0.003*[#  23]
    |psi|^2 = 0.994
==== e(  14) =    15.60055 eV ==== 
     psi = 0.310*[#   5]+0.228*[#   7]+0.203*[#   9]+0.184*[#   6]+0.071*[#   8]
          +0.001*[#  11]
    |psi|^2 = 1.000
==== e(  15) =    15.87196 eV ==== 
     psi = 0.184*[#  13]+0.157*[#   9]+0.091*[#   8]+0.085*[#  12]+0.085*[#  26]
          +0.074*[#  25]+0.068*[#   7]+0.060*[#   6]+0.052*[#  11]+0.048*[#  10]
          +0.025*[#  23]+0.016*[#  22]+0.016*[#  19]+0.009*[#  24]+0.007*[#  21]
          +0.006*[#  20]+0.003*[#   1]+0.003*[#  18]+0.002*[#   5]+0.002*[#   4]
          +0.002*[#  14]+0.001*[#  17]
    |psi|^2 = 1.000
==== e(  16) =    16.46686 eV ==== 
     psi = 0.368*[#  22]+0.140*[#  21]+0.112*[#  20]+0.092*[#  19]+0.080*[#   8]
          +0.055*[#   9]+0.049*[#  18]+0.030*[#  26]+0.029*[#   5]+0.013*[#  24]
          +0.011*[#  25]+0.008*[#   7]+0.005*[#   6]+0.003*[#  12]+0.002*[#  13]
          
    |psi|^2 = 0.999
==== e(  17) =    16.53954 eV ==== 
     psi = 0.333*[#  19]+0.228*[#  22]+0.225*[#  20]+0.100*[#  21]+0.030*[#   6]
          +0.024*[#   5]+0.022*[#   8]+0.015*[#  18]+0.011*[#   7]+0.010*[#   9]
          
    |psi|^2 = 0.999
==== e(  18) =    17.02810 eV ==== 
     psi = 0.280*[#  21]+0.100*[#   9]+0.100*[#  26]+0.098*[#  22]+0.086*[#  18]
          +0.053*[#  12]+0.043*[#  24]+0.039*[#   8]+0.036*[#  19]+0.035*[#  25]
          +0.034*[#  20]+0.028*[#  13]+0.024*[#   7]+0.017*[#   6]+0.013*[#   5]
          +0.004*[#  23]+0.003*[#  10]+0.001*[#  14]+0.001*[#  17]
    |psi|^2 = 0.997

 k =   0.2000000000  0.8082903769 -0.4082482905
==== e(   1) =   -85.17779 eV ==== 
     psi = 0.982*[#   1]+0.004*[#  13]+0.004*[#  26]+0.003*[#  10]+0.002*[#  11]
          +0.002*[#  24]+0.001*[#  12]+0.001*[#  25]
    |psi|^2 = 1.000
==== e(   2) =   -83.89606 eV ==== 
     psi = 0.982*[#  14]+0.004*[#  26]+0.003*[#  13]+0.003*[#  23]+0.002*[#  11]
          +0.002*[#  24]+0.001*[#  25]+0.001*[#  12]
    |psi|^2 = 1.000
==== e(   3) =   -45.86513 eV ==== 
     psi = 0.460*[#   4]+0.359*[#   2]+0.174*[#   3]+0.003*[#  13]
    |psi|^2 = 1.000
==== e(   4) =   -45.75920 eV ==== 
     psi = 0.567*[#   2]+0.302*[#   4]+0.127*[#   3]+0.003*[#  11]
    |psi|^2 = 1.000
==== e(   5) =   -45.58769 eV ==== 
     psi = 0.694*[#   3]+0.231*[#   4]+0.068*[#   2]+0.001*[#  25]+0.001*[#  16]
          
    |psi|^2 = 1.000
==== e(   6) =   -44.58392 eV ==== 
     psi = 0.524*[#  17]+0.274*[#  15]+0.195*[#  16]+0.003*[#  26]
    |psi|^2 = 1.000
==== e(   7) =   -44.46700 eV ==== 
     psi = 0.689*[#  15]+0.225*[#  17]+0.081*[#  16]+0.003*[#  24]
    |psi|^2 = 1.000
==== e(   8) =   -44.43844 eV ==== 
     psi = 0.718*[#  16]+0.245*[#  17]+0.031*[#  15]+0.002*[#  12]+0.001*[#   3]
          
    |psi|^2 = 1.000
==== e(   9) =    12.06353 eV ==== 
     psi = 0.212*[#   7]+0.153*[#   8]+0.146*[#   5]+0.117*[#  10]+0.071*[#   6]
          +0.063*[#   9]+0.057*[#  23]+0.030*[#  13]+0.028*[#  22]+0.026*[#  26]
          +0.018*[#  24]+0.015*[#  21]+0.014*[#  19]+0.012*[#  11]+0.011*[#  12]
          +0.011*[#  25]+0.008*[#  20]+0.002*[#   1]+0.002*[#  14]
    |psi|^2 = 0.995
==== e(  10) =    12.51532 eV ==== 
     psi = 0.205*[#   7]+0.179*[#  20]+0.164*[#   6]+0.127*[#   8]+0.087*[#  19]
          +0.057*[#  23]+0.048*[#   9]+0.030*[#  22]+0.023*[#  21]+0.016*[#  25]
          +0.015*[#  12]+0.015*[#  13]+0.007*[#  18]+0.006*[#  26]+0.004*[#  10]
          +0.002*[#  24]+0.001*[#  11]
    |psi|^2 = 0.989
==== e(  11) =    13.31212 eV ==== 
     psi = 0.195*[#   9]+0.164*[#   8]+0.129*[#   5]+0.090*[#  26]+0.059*[#  18]
          +0.055*[#  23]+0.052*[#  25]+0.048*[#  20]+0.045*[#  21]+0.036*[#  10]
          +0.022*[#  19]+0.018*[#  24]+0.018*[#  22]+0.017*[#   6]+0.016*[#  13]
          +0.011*[#  11]+0.007*[#  12]+0.006*[#   7]+0.002*[#  14]+0.001*[#   1]
          
    |psi|^2 = 0.994
==== e(  12) =    14.40703 eV ==== 
     psi = 0.222*[#  20]+0.199*[#   6]+0.178*[#  19]+0.106*[#   7]+0.089*[#   9]
          +0.079*[#   8]+0.049*[#  21]+0.016*[#  22]+0.014*[#  18]+0.014*[#   5]
          +0.012*[#  13]+0.007*[#  12]+0.002*[#  11]+0.002*[#  25]+0.002*[#  10]
          
    |psi|^2 = 0.994
==== e(  13) =    14.53789 eV ==== 
     psi = 0.349*[#   5]+0.225*[#   6]+0.183*[#   8]+0.077*[#   7]+0.075*[#   9]
          +0.027*[#  19]+0.016*[#  21]+0.016*[#  18]+0.013*[#  20]+0.011*[#  22]
          +0.002*[#  24]
    |psi|^2 = 0.998
==== e(  14) =    15.09200 eV ==== 
     psi = 0.195*[#  22]+0.119*[#  13]+0.117*[#  18]+0.094*[#  19]+0.088*[#  21]
          +0.063*[#   8]+0.049*[#  12]+0.047*[#   9]+0.043*[#   7]+0.040*[#  11]
          +0.040*[#  20]+0.023*[#   6]+0.017*[#   5]+0.016*[#  10]+0.016*[#  25]
          +0.014*[#  26]+0.010*[#  23]+0.001*[#   1]+0.001*[#  14]+0.001*[#   4]
          
    |psi|^2 = 0.997
==== e(  15) =    15.59567 eV ==== 
     psi = 0.265*[#   5]+0.235*[#   7]+0.211*[#   9]+0.206*[#   6]+0.071*[#   8]
          +0.003*[#  19]+0.002*[#  20]+0.002*[#  22]+0.002*[#  11]
    |psi|^2 = 1.000
==== e(  16) =    16.17016 eV ==== 
     psi = 0.337*[#  21]+0.122*[#   9]+0.114*[#  22]+0.095*[#  18]+0.052*[#  12]
          +0.049*[#  19]+0.041*[#   8]+0.032*[#   7]+0.029*[#  20]+0.028*[#   6]
          +0.022*[#  26]+0.018*[#  13]+0.016*[#  24]+0.013*[#  11]+0.011*[#  25]
          +0.007*[#   5]+0.005*[#  10]+0.005*[#  23]
    |psi|^2 = 0.997
==== e(  17) =    16.40788 eV ==== 
     psi = 0.371*[#  19]+0.243*[#  20]+0.203*[#  22]+0.106*[#  21]+0.038*[#   5]
          +0.011*[#   8]+0.007*[#  18]+0.007*[#   6]+0.004*[#   9]+0.003*[#   7]
          +0.002*[#  11]+0.001*[#  24]
    |psi|^2 = 0.999
==== e(  18) =    16.96477 eV ==== 
     psi = 0.233*[#  22]+0.106*[#  20]+0.106*[#  26]+0.092*[#   9]+0.078*[#  21]
          +0.058*[#  19]+0.049*[#  13]+0.043*[#   7]+0.040*[#  25]+0.039*[#  24]
          +0.038*[#   8]+0.031*[#  12]+0.025*[#  10]+0.018*[#  23]+0.017*[#   6]
          +0.009*[#  11]+0.006*[#   5]+0.004*[#  18]+0.002*[#  14]+0.002*[#   1]
          +0.001*[#  17]
    |psi|^2 = 0.999

 k =   0.4000000000  0.6928203230 -0.4898979486
==== e(   1) =   -85.17759 eV ==== 
     psi = 0.975*[#   1]+0.006*[#  26]+0.005*[#  24]+0.004*[#  10]+0.004*[#  13]
          +0.003*[#  25]+0.002*[#  11]+0.001*[#  12]
    |psi|^2 = 1.000
==== e(   2) =   -83.89583 eV ==== 
     psi = 0.975*[#  14]+0.006*[#  13]+0.004*[#  11]+0.004*[#  23]+0.004*[#  26]
          +0.003*[#  12]+0.002*[#  24]+0.001*[#  25]
    |psi|^2 = 1.000
==== e(   3) =   -45.86430 eV ==== 
     psi = 0.461*[#   4]+0.359*[#   2]+0.174*[#   3]+0.003*[#  13]
    |psi|^2 = 1.000
==== e(   4) =   -45.75892 eV ==== 
     psi = 0.567*[#   2]+0.302*[#   4]+0.127*[#   3]+0.003*[#  11]
    |psi|^2 = 1.000
==== e(   5) =   -45.58557 eV ==== 
     psi = 0.695*[#   3]+0.232*[#   4]+0.070*[#   2]
    |psi|^2 = 1.000
==== e(   6) =   -44.58534 eV ==== 
     psi = 0.524*[#  17]+0.279*[#  15]+0.192*[#  16]+0.003*[#  26]+0.001*[#  25]
          
    |psi|^2 = 1.000
==== e(   7) =   -44.46737 eV ==== 
     psi = 0.691*[#  15]+0.225*[#  17]+0.080*[#  16]+0.003*[#  24]
    |psi|^2 = 1.000
==== e(   8) =   -44.44072 eV ==== 
     psi = 0.724*[#  16]+0.246*[#  17]+0.026*[#  15]
    |psi|^2 = 1.000
==== e(   9) =    12.29566 eV ==== 
     psi = 0.332*[#   7]+0.133*[#   5]+0.127*[#   6]+0.104*[#  10]+0.063*[#   8]
          +0.042*[#  26]+0.037*[#   9]+0.031*[#  24]+0.028*[#  13]+0.026*[#  23]
          +0.020*[#  25]+0.014*[#  11]+0.010*[#  20]+0.009*[#  12]+0.007*[#  22]
          +0.003*[#  19]+0.002*[#   1]+0.002*[#  21]+0.002*[#  14]
    |psi|^2 = 0.994
==== e(  10) =    12.99746 eV ==== 
     psi = 0.336*[#   8]+0.161*[#   9]+0.139*[#   5]+0.077*[#  26]+0.057*[#  25]
          +0.049*[#  23]+0.048*[#  20]+0.026*[#  13]+0.021*[#  19]+0.018*[#  11]
          +0.012*[#  12]+0.011*[#  24]+0.010*[#  10]+0.009*[#   6]+0.006*[#  22]
          +0.005*[#  18]+0.005*[#   7]+0.002*[#  21]+0.002*[#  14]
    |psi|^2 = 0.996
==== e(  11) =    13.14676 eV ==== 
     psi = 0.259*[#  20]+0.133*[#   7]+0.130*[#  19]+0.121*[#   6]+0.088*[#   8]
          +0.055*[#  23]+0.042*[#  13]+0.030*[#   9]+0.027*[#  22]+0.020*[#  12]
          +0.020*[#  25]+0.020*[#  21]+0.019*[#  18]+0.011*[#  11]+0.007*[#  26]
          +0.004*[#  24]
    |psi|^2 = 0.990
==== e(  12) =    14.32614 eV ==== 
     psi = 0.269*[#   9]+0.222*[#   6]+0.118*[#   8]+0.080*[#  20]+0.076*[#   7]
          +0.041*[#  26]+0.040*[#  19]+0.039*[#   5]+0.026*[#  24]+0.021*[#  21]
          +0.020*[#  22]+0.015*[#  25]+0.010*[#  10]+0.009*[#  13]+0.005*[#  12]
          +0.002*[#  11]
    |psi|^2 = 0.996
==== e(  13) =    14.69455 eV ==== 
     psi = 0.368*[#   5]+0.255*[#   6]+0.194*[#   8]+0.086*[#   7]+0.080*[#   9]
          +0.005*[#  24]+0.003*[#  18]+0.002*[#  26]+0.002*[#  19]+0.002*[#  21]
          +0.001*[#  25]
    |psi|^2 = 0.999
==== e(  14) =    14.74678 eV ==== 
     psi = 0.230*[#  22]+0.190*[#  18]+0.164*[#  19]+0.106*[#  21]+0.097*[#  20]
          +0.080*[#  13]+0.034*[#  12]+0.026*[#  11]+0.024*[#   7]+0.016*[#  10]
          +0.008*[#   6]+0.006*[#   9]+0.003*[#   5]+0.002*[#  23]+0.002*[#   8]
          +0.001*[#  25]
    |psi|^2 = 0.993
==== e(  15) =    15.51345 eV ==== 
     psi = 0.399*[#  21]+0.142*[#  22]+0.101*[#  19]+0.081*[#  12]+0.073*[#  18]
          +0.036*[#  20]+0.034*[#  23]+0.030*[#  13]+0.026*[#  11]+0.021*[#   7]
          +0.021*[#   9]+0.009*[#   6]+0.009*[#   8]+0.005*[#   5]+0.005*[#  25]
          +0.002*[#  26]+0.001*[#  24]
    |psi|^2 = 0.996
==== e(  16) =    15.56259 eV ==== 
     psi = 0.261*[#   5]+0.211*[#   9]+0.211*[#   7]+0.183*[#   6]+0.072*[#   8]
          +0.018*[#  19]+0.015*[#  22]+0.013*[#  21]+0.011*[#  20]+0.002*[#  11]
          +0.001*[#  12]+0.001*[#  13]
    |psi|^2 = 1.000
==== e(  17) =    16.31984 eV ==== 
     psi = 0.386*[#  19]+0.237*[#  20]+0.197*[#  22]+0.114*[#  21]+0.022*[#   5]
          +0.012*[#   7]+0.011*[#   9]+0.009*[#   6]+0.004*[#   8]+0.003*[#  11]
          +0.001*[#  13]
    |psi|^2 = 0.999
==== e(  18) =    17.36095 eV ==== 
     psi = 0.183*[#  22]+0.111*[#   9]+0.103*[#  20]+0.099*[#  26]+0.063*[#  21]
          +0.062*[#   7]+0.056*[#  13]+0.051*[#  19]+0.049*[#  10]+0.048*[#  24]
          +0.038*[#   8]+0.033*[#  25]+0.026*[#   6]+0.026*[#  23]+0.021*[#  12]
          +0.021*[#  11]+0.003*[#   1]+0.003*[#  14]+0.002*[#   5]
    |psi|^2 = 0.999

 k =   0.6000000000  0.5773502692 -0.5715476066
==== e(   1) =   -85.17754 eV ==== 
     psi = 0.975*[#   1]+0.005*[#  25]+0.005*[#  26]+0.004*[#  24]+0.004*[#  10]
          +0.004*[#  13]+0.001*[#  12]+0.001*[#  11]
    |psi|^2 = 1.000
==== e(   2) =   -83.89594 eV ==== 
     psi = 0.975*[#  14]+0.005*[#  12]+0.005*[#  13]+0.004*[#  11]+0.004*[#  23]
          +0.004*[#  26]+0.001*[#  25]+0.001*[#  24]
    |psi|^2 = 1.000
==== e(   3) =   -45.86524 eV ==== 
     psi = 0.462*[#   4]+0.357*[#   2]+0.175*[#   3]+0.003*[#  13]
    |psi|^2 = 1.000
==== e(   4) =   -45.75901 eV ==== 
     psi = 0.568*[#   2]+0.301*[#   4]+0.126*[#   3]+0.003*[#  11]
    |psi|^2 = 1.000
==== e(   5) =   -45.58576 eV ==== 
     psi = 0.694*[#   3]+0.232*[#   4]+0.070*[#   2]
    |psi|^2 = 1.000
==== e(   6) =   -44.58388 eV ==== 
     psi = 0.521*[#  17]+0.281*[#  15]+0.190*[#  16]+0.002*[#  26]+0.001*[#   3]
          
    |psi|^2 = 1.000
==== e(   7) =   -44.46724 eV ==== 
     psi = 0.689*[#  15]+0.226*[#  17]+0.081*[#  16]+0.003*[#  24]
    |psi|^2 = 1.000
==== e(   8) =   -44.44073 eV ==== 
     psi = 0.725*[#  16]+0.246*[#  17]+0.026*[#  15]
    |psi|^2 = 1.000
==== e(   9) =    12.28277 eV ==== 
     psi = 0.357*[#   7]+0.162*[#   6]+0.090*[#  10]+0.070*[#   5]+0.066*[#  20]
          +0.042*[#  19]+0.037*[#  26]+0.026*[#  24]+0.023*[#  13]+0.022*[#  23]
          +0.021*[#   9]+0.017*[#  25]+0.014*[#  21]+0.013*[#  11]+0.008*[#   8]
          +0.008*[#  12]+0.007*[#  22]+0.003*[#  18]+0.002*[#   1]
    |psi|^2 = 0.990
==== e(  10) =    12.46410 eV ==== 
     psi = 0.372*[#   8]+0.171*[#   5]+0.132*[#   9]+0.068*[#  23]+0.044*[#  20]
          +0.040*[#  22]+0.028*[#  25]+0.024*[#  26]+0.020*[#   7]+0.018*[#  21]
          +0.018*[#   6]+0.015*[#  13]+0.015*[#  19]+0.013*[#  11]+0.012*[#  12]
          +0.001*[#  14]
    |psi|^2 = 0.994
==== e(  11) =    13.85475 eV ==== 
     psi = 0.326*[#  20]+0.199*[#  19]+0.125*[#   7]+0.094*[#   6]+0.068*[#   8]
          +0.051*[#  18]+0.028*[#   9]+0.023*[#  13]+0.018*[#  25]+0.018*[#  23]
          +0.012*[#  12]+0.009*[#  21]+0.009*[#  26]+0.006*[#  11]+0.005*[#  22]
          
    |psi|^2 = 0.990
==== e(  12) =    14.07613 eV ==== 
     psi = 0.268*[#   9]+0.168*[#   6]+0.098*[#  21]+0.094*[#   8]+0.058*[#   5]
          +0.056*[#   7]+0.054*[#  18]+0.034*[#  10]+0.033*[#  22]+0.031*[#  20]
          +0.025*[#  26]+0.022*[#  24]+0.018*[#  25]+0.012*[#  19]+0.011*[#  12]
          +0.006*[#  23]+0.004*[#  13]+0.001*[#  11]
    |psi|^2 = 0.994
==== e(  13) =    14.63497 eV ==== 
     psi = 0.322*[#   5]+0.264*[#   6]+0.183*[#   8]+0.091*[#   7]+0.080*[#   9]
          +0.021*[#  19]+0.011*[#  20]+0.009*[#  22]+0.008*[#  21]+0.005*[#  24]
          +0.001*[#  18]+0.001*[#  26]
    |psi|^2 = 0.998
==== e(  14) =    14.95096 eV ==== 
     psi = 0.237*[#  22]+0.153*[#  21]+0.153*[#  18]+0.091*[#  13]+0.059*[#  19]
          +0.058*[#   9]+0.055*[#  12]+0.034*[#  26]+0.032*[#  25]+0.024*[#   8]
          +0.022*[#  20]+0.019*[#  11]+0.017*[#  10]+0.012*[#   5]+0.011*[#   6]
          +0.011*[#   7]+0.003*[#  24]+0.002*[#  23]
    |psi|^2 = 0.996
==== e(  15) =    15.55763 eV ==== 
     psi = 0.334*[#   5]+0.200*[#   7]+0.193*[#   9]+0.147*[#   6]+0.071*[#   8]
          +0.020*[#  19]+0.012*[#  20]+0.011*[#  22]+0.007*[#  21]+0.002*[#  11]
          
    |psi|^2 = 1.000
==== e(  16) =    15.90464 eV ==== 
     psi = 0.235*[#  21]+0.146*[#  19]+0.139*[#  22]+0.070*[#  12]+0.061*[#  23]
          +0.051*[#   8]+0.049*[#  20]+0.044*[#   6]+0.038*[#  11]+0.038*[#  13]
          +0.036*[#   9]+0.032*[#  26]+0.019*[#  24]+0.015*[#   7]+0.011*[#  25]
          +0.007*[#  18]+0.002*[#  14]+0.002*[#  10]
    |psi|^2 = 0.997
==== e(  17) =    16.42325 eV ==== 
     psi = 0.365*[#  19]+0.229*[#  20]+0.193*[#  22]+0.109*[#  21]+0.041*[#   6]
          +0.025*[#   7]+0.021*[#   9]+0.012*[#   8]+0.002*[#  11]+0.001*[#  18]
          
    |psi|^2 = 0.999
==== e(  18) =    17.51546 eV ==== 
     psi = 0.137*[#  22]+0.107*[#  26]+0.096*[#  20]+0.091*[#   9]+0.073*[#  13]
          +0.069*[#  24]+0.068*[#  10]+0.062*[#   7]+0.048*[#  21]+0.045*[#  11]
          +0.041*[#  25]+0.041*[#  19]+0.031*[#  23]+0.030*[#   8]+0.027*[#  12]
          +0.025*[#   6]+0.003*[#   1]+0.003*[#  14]
    |psi|^2 = 0.999

 k =   0.8000000000  0.4618802154 -0.6531972647
==== e(   1) =   -85.17776 eV ==== 
     psi = 0.982*[#   1]+0.004*[#  25]+0.003*[#  13]+0.003*[#  10]+0.002*[#  26]
          +0.002*[#  24]+0.001*[#  12]+0.001*[#  11]
    |psi|^2 = 1.000
==== e(   2) =   -83.89631 eV ==== 
     psi = 0.982*[#  14]+0.004*[#  12]+0.004*[#  26]+0.003*[#  23]+0.002*[#  13]
          +0.002*[#  11]+0.001*[#  25]+0.001*[#  24]
    |psi|^2 = 1.000
==== e(   3) =   -45.86669 eV ==== 
     psi = 0.461*[#   4]+0.356*[#   2]+0.174*[#   3]+0.002*[#  13]+0.002*[#  25]
          +0.001*[#  16]
    |psi|^2 = 1.000
==== e(   4) =   -45.75940 eV ==== 
     psi = 0.569*[#   2]+0.300*[#   4]+0.126*[#   3]+0.003*[#  11]
    |psi|^2 = 1.000
==== e(   5) =   -45.58844 eV ==== 
     psi = 0.692*[#   3]+0.231*[#   4]+0.069*[#   2]+0.002*[#  26]+0.002*[#  17]
          +0.001*[#  15]+0.001*[#  24]
    |psi|^2 = 1.000
==== e(   6) =   -44.58159 eV ==== 
     psi = 0.520*[#  17]+0.277*[#  15]+0.192*[#  16]+0.003*[#   3]+0.003*[#  12]
          +0.002*[#  26]
    |psi|^2 = 1.000
==== e(   7) =   -44.46685 eV ==== 
     psi = 0.687*[#  15]+0.227*[#  17]+0.082*[#  16]+0.003*[#  24]
    |psi|^2 = 1.000
==== e(   8) =   -44.43879 eV ==== 
     psi = 0.719*[#  16]+0.245*[#  17]+0.029*[#  15]+0.002*[#  13]+0.001*[#   4]
          
    |psi|^2 = 1.000
==== e(   9) =    12.06273 eV ==== 
     psi = 0.363*[#   8]+0.145*[#   5]+0.122*[#   9]+0.106*[#  23]+0.061*[#  22]
          +0.041*[#  20]+0.029*[#   6]+0.026*[#   7]+0.021*[#  21]+0.017*[#  12]
          +0.015*[#  19]+0.015*[#  10]+0.009*[#  26]+0.009*[#  25]+0.006*[#  13]
          +0.004*[#  11]
    |psi|^2 = 0.992
==== e(  10) =    12.13756 eV ==== 
     psi = 0.349*[#   7]+0.170*[#   6]+0.108*[#  20]+0.087*[#  10]+0.080*[#  19]
          +0.052*[#   5]+0.031*[#  21]+0.020*[#   9]+0.015*[#  23]+0.011*[#  22]
          +0.011*[#  26]+0.011*[#  25]+0.010*[#  13]+0.010*[#  24]+0.008*[#   8]
          +0.007*[#  11]+0.004*[#  12]+0.004*[#  18]
    |psi|^2 = 0.987
==== e(  11) =    13.58996 eV ==== 
     psi = 0.223*[#   9]+0.161*[#  21]+0.100*[#  18]+0.094*[#   6]+0.078*[#   8]
          +0.076*[#   5]+0.059*[#  10]+0.056*[#  22]+0.036*[#  20]+0.031*[#   7]
          +0.028*[#  23]+0.015*[#  25]+0.012*[#  19]+0.007*[#  12]+0.005*[#  26]
          +0.004*[#  13]+0.002*[#  24]
    |psi|^2 = 0.988
==== e(  12) =    14.37730 eV ==== 
     psi = 0.313*[#  20]+0.243*[#  19]+0.149*[#   7]+0.136*[#   6]+0.069*[#  18]
          +0.027*[#   8]+0.009*[#   9]+0.009*[#  21]+0.008*[#   5]+0.007*[#  22]
          +0.006*[#  23]+0.005*[#  13]+0.005*[#  25]+0.003*[#  12]+0.002*[#  26]
          
    |psi|^2 = 0.993
==== e(  13) =    14.46087 eV ==== 
     psi = 0.301*[#   5]+0.235*[#   6]+0.174*[#   8]+0.083*[#   7]+0.076*[#   9]
          +0.045*[#  19]+0.025*[#  20]+0.022*[#  21]+0.020*[#  22]+0.013*[#  18]
          +0.001*[#  24]
    |psi|^2 = 0.997
==== e(  14) =    15.50234 eV ==== 
     psi = 0.157*[#  22]+0.107*[#  13]+0.105*[#   9]+0.099*[#  21]+0.088*[#  26]
          +0.066*[#  12]+0.064*[#  25]+0.058*[#  18]+0.045*[#   7]+0.038*[#   8]
          +0.037*[#   6]+0.028*[#   5]+0.023*[#  10]+0.022*[#  11]+0.019*[#  19]
          +0.015*[#  20]+0.012*[#  24]+0.010*[#  23]+0.001*[#   4]+0.001*[#  17]
          
    |psi|^2 = 0.999
==== e(  15) =    15.58367 eV ==== 
     psi = 0.331*[#   5]+0.222*[#   9]+0.196*[#   7]+0.145*[#   6]+0.081*[#   8]
          +0.007*[#  22]+0.005*[#  19]+0.003*[#  20]+0.003*[#  21]+0.002*[#  13]
          
    |psi|^2 = 1.000
==== e(  16) =    16.55451 eV ==== 
     psi = 0.357*[#  19]+0.240*[#  20]+0.184*[#  22]+0.089*[#  21]+0.050*[#   6]
          +0.023*[#   7]+0.017*[#   8]+0.015*[#   9]+0.012*[#  18]+0.011*[#   5]
          
    |psi|^2 = 0.999
==== e(  17) =    16.75216 eV ==== 
     psi = 0.295*[#  22]+0.150*[#  21]+0.114*[#  19]+0.107*[#   8]+0.104*[#   9]
          +0.081*[#  20]+0.057*[#   6]+0.033*[#   7]+0.017*[#  10]+0.014*[#  12]
          +0.012*[#  23]+0.010*[#  13]+0.004*[#   5]+0.001*[#  25]
    |psi|^2 = 0.999
==== e(  18) =    18.05286 eV ==== 
     psi = 0.232*[#  26]+0.144*[#  24]+0.097*[#  12]+0.086*[#  25]+0.079*[#  23]
          +0.070*[#  13]+0.070*[#  11]+0.039*[#   8]+0.034*[#  10]+0.032*[#   9]
          +0.030*[#   7]+0.030*[#  20]+0.015*[#  19]+0.014*[#   6]+0.008*[#  18]
          +0.004*[#   5]+0.004*[#  14]+0.002*[#  17]+0.002*[#  21]+0.001*[#   1]
          +0.001*[#  15]
    |psi|^2 = 0.999

 k =   0.0000000000  1.3856406461 -0.4898979486
==== e(   1) =   -85.17788 eV ==== 
     psi = 0.987*[#   1]+0.004*[#  13]+0.002*[#  10]+0.002*[#  25]+0.001*[#  11]
          +0.001*[#  12]+0.001*[#  23]+0.001*[#  26]
    |psi|^2 = 1.000
==== e(   2) =   -83.89639 eV ==== 
     psi = 0.987*[#  14]+0.004*[#  26]+0.002*[#  23]+0.002*[#  12]+0.001*[#  24]
          +0.001*[#  25]+0.001*[#  10]+0.001*[#  13]
    |psi|^2 = 1.000
==== e(   3) =   -45.86659 eV ==== 
     psi = 0.460*[#   4]+0.357*[#   2]+0.173*[#   3]+0.002*[#  13]+0.002*[#  25]
          +0.001*[#  16]
    |psi|^2 = 1.000
==== e(   4) =   -45.75950 eV ==== 
     psi = 0.568*[#   2]+0.301*[#   4]+0.126*[#   3]+0.003*[#  11]
    |psi|^2 = 1.000
==== e(   5) =   -45.58935 eV ==== 
     psi = 0.691*[#   3]+0.231*[#   4]+0.067*[#   2]+0.002*[#  26]+0.002*[#  17]
          +0.002*[#  15]+0.002*[#  24]+0.001*[#  16]+0.001*[#  25]
    |psi|^2 = 1.000
==== e(   6) =   -44.58161 eV ==== 
     psi = 0.522*[#  17]+0.273*[#  15]+0.195*[#  16]+0.002*[#   3]+0.002*[#  12]
          +0.002*[#  26]
    |psi|^2 = 1.000
==== e(   7) =   -44.46670 eV ==== 
     psi = 0.687*[#  15]+0.226*[#  17]+0.082*[#  16]+0.003*[#  24]
    |psi|^2 = 1.000
==== e(   8) =   -44.43719 eV ==== 
     psi = 0.715*[#  16]+0.244*[#  17]+0.033*[#  15]+0.002*[#  13]+0.001*[#  12]
          +0.001*[#   4]+0.001*[#  11]+0.001*[#   3]
    |psi|^2 = 1.000
==== e(   9) =    11.92070 eV ==== 
     psi = 0.263*[#   8]+0.155*[#   5]+0.108*[#   7]+0.094*[#  23]+0.092*[#   9]
          +0.086*[#  10]+0.050*[#  22]+0.041*[#   6]+0.021*[#  21]+0.019*[#  19]
          +0.017*[#  13]+0.015*[#  20]+0.015*[#  12]+0.008*[#  26]+0.003*[#  24]
          +0.003*[#  25]+0.002*[#  11]
    |psi|^2 = 0.994
==== e(  10) =    12.17440 eV ==== 
     psi = 0.276*[#   7]+0.176*[#   6]+0.158*[#  20]+0.090*[#  19]+0.071*[#   8]
          +0.045*[#  23]+0.036*[#  10]+0.036*[#   9]+0.034*[#  21]+0.023*[#  22]
          +0.009*[#  12]+0.008*[#  25]+0.007*[#   5]+0.004*[#  18]+0.003*[#  13]
          +0.003*[#  26]+0.002*[#  24]+0.002*[#  11]
    |psi|^2 = 0.985
==== e(  11) =    13.35688 eV ==== 
     psi = 0.211*[#   9]+0.135*[#  21]+0.105*[#   5]+0.099*[#   8]+0.094*[#  18]
          +0.060*[#   6]+0.058*[#  10]+0.052*[#  22]+0.041*[#  23]+0.033*[#  26]
          +0.029*[#  20]+0.028*[#  25]+0.020*[#   7]+0.010*[#  19]+0.005*[#  13]
          +0.003*[#  24]+0.002*[#  11]+0.002*[#  12]
    |psi|^2 = 0.989
==== e(  12) =    14.41017 eV ==== 
     psi = 0.305*[#   5]+0.243*[#   6]+0.163*[#   8]+0.082*[#   7]+0.068*[#   9]
          +0.057*[#  19]+0.023*[#  20]+0.022*[#  21]+0.018*[#  22]+0.016*[#  18]
          
    |psi|^2 = 0.997
==== e(  13) =    14.55753 eV ==== 
     psi = 0.290*[#  20]+0.237*[#  19]+0.135*[#   6]+0.135*[#   7]+0.069*[#  18]
          +0.040*[#   8]+0.024*[#   5]+0.024*[#   9]+0.018*[#  21]+0.017*[#  22]
          +0.003*[#  23]
    |psi|^2 = 0.994
==== e(  14) =    15.60055 eV ==== 
     psi = 0.310*[#   5]+0.228*[#   7]+0.203*[#   9]+0.184*[#   6]+0.071*[#   8]
          +0.001*[#  11]
    |psi|^2 = 1.000
==== e(  15) =    15.87196 eV ==== 
     psi = 0.184*[#  13]+0.157*[#   9]+0.091*[#   8]+0.085*[#  12]+0.085*[#  26]
          +0.074*[#  25]+0.068*[#   7]+0.060*[#   6]+0.052*[#  11]+0.048*[#  10]
          +0.025*[#  23]+0.016*[#  22]+0.016*[#  19]+0.009*[#  24]+0.007*[#  21]
          +0.006*[#  20]+0.003*[#   1]+0.003*[#  18]+0.002*[#   5]+0.002*[#   4]
          +0.002*[#  14]+0.001*[#  17]
    |psi|^2 = 1.000
==== e(  16) =    16.46686 eV ==== 
     psi = 0.368*[#  22]+0.140*[#  21]+0.112*[#  20]+0.092*[#  19]+0.080*[#   8]
          +0.055*[#   9]+0.048*[#  18]+0.030*[#  26]+0.029*[#   5]+0.013*[#  24]
          +0.011*[#  25]+0.008*[#   7]+0.005*[#   6]+0.003*[#  12]+0.002*[#  13]
          
    |psi|^2 = 0.999
==== e(  17) =    16.53954 eV ==== 
     psi = 0.333*[#  19]+0.228*[#  22]+0.225*[#  20]+0.100*[#  21]+0.030*[#   6]
          +0.024*[#   5]+0.022*[#   8]+0.015*[#  18]+0.011*[#   7]+0.010*[#   9]
          
    |psi|^2 = 0.999
==== e(  18) =    17.02810 eV ==== 
     psi = 0.280*[#  21]+0.100*[#   9]+0.100*[#  26]+0.098*[#  22]+0.086*[#  18]
          +0.053*[#  12]+0.043*[#  24]+0.039*[#   8]+0.036*[#  19]+0.035*[#  25]
          +0.034*[#  20]+0.028*[#  13]+0.024*[#   7]+0.017*[#   6]+0.013*[#   5]
          +0.004*[#  23]+0.003*[#  10]+0.001*[#  14]+0.001*[#  17]
    |psi|^2 = 0.997

 k =   0.2000000000  1.2701705922 -0.5715476066
==== e(   1) =   -85.17776 eV ==== 
     psi = 0.982*[#   1]+0.004*[#  25]+0.003*[#  13]+0.003*[#  10]+0.002*[#  26]
          +0.002*[#  24]+0.001*[#  12]+0.001*[#  11]
    |psi|^2 = 1.000
==== e(   2) =   -83.89631 eV ==== 
     psi = 0.982*[#  14]+0.004*[#  12]+0.004*[#  26]+0.003*[#  23]+0.002*[#  13]
          +0.002*[#  11]+0.001*[#  25]+0.001*[#  24]
    |psi|^2 = 1.000
==== e(   3) =   -45.86669 eV ==== 
     psi = 0.461*[#   4]+0.356*[#   2]+0.174*[#   3]+0.002*[#  13]+0.002*[#  25]
          +0.001*[#  16]
    |psi|^2 = 1.000
==== e(   4) =   -45.75940 eV ==== 
     psi = 0.569*[#   2]+0.300*[#   4]+0.126*[#   3]+0.003*[#  11]
    |psi|^2 = 1.000
==== e(   5) =   -45.58844 eV ==== 
     psi = 0.692*[#   3]+0.231*[#   4]+0.069*[#   2]+0.002*[#  26]+0.002*[#  17]
          +0.001*[#  15]+0.001*[#  24]
    |psi|^2 = 1.000
==== e(   6) =   -44.58159 eV ==== 
     psi = 0.520*[#  17]+0.277*[#  15]+0.192*[#  16]+0.003*[#   3]+0.003*[#  12]
          +0.002*[#  26]
    |psi|^2 = 1.000
==== e(   7) =   -44.46685 eV ==== 
     psi = 0.687*[#  15]+0.227*[#  17]+0.082*[#  16]+0.003*[#  24]
    |psi|^2 = 1.000
==== e(   8) =   -44.43879 eV ==== 
     psi = 0.719*[#  16]+0.245*[#  17]+0.029*[#  15]+0.002*[#  13]+0.001*[#   4]
          
    |psi|^2 = 1.000
==== e(   9) =    12.06273 eV ==== 
     psi = 0.363*[#   8]+0.145*[#   5]+0.122*[#   9]+0.106*[#  23]+0.061*[#  22]
          +0.041*[#  20]+0.029*[#   6]+0.026*[#   7]+0.021*[#  21]+0.017*[#  12]
          +0.015*[#  19]+0.015*[#  10]+0.009*[#  26]+0.009*[#  25]+0.006*[#  13]
          +0.004*[#  11]
    |psi|^2 = 0.992
==== e(  10) =    12.13756 eV ==== 
     psi = 0.349*[#   7]+0.170*[#   6]+0.108*[#  20]+0.087*[#  10]+0.080*[#  19]
          +0.052*[#   5]+0.031*[#  21]+0.020*[#   9]+0.015*[#  23]+0.011*[#  22]
          +0.011*[#  26]+0.011*[#  25]+0.010*[#  13]+0.010*[#  24]+0.008*[#   8]
          +0.007*[#  11]+0.004*[#  12]+0.004*[#  18]
    |psi|^2 = 0.987
==== e(  11) =    13.58996 eV ==== 
     psi = 0.223*[#   9]+0.161*[#  21]+0.100*[#  18]+0.094*[#   6]+0.078*[#   8]
          +0.076*[#   5]+0.059*[#  10]+0.056*[#  22]+0.036*[#  20]+0.031*[#   7]
          +0.028*[#  23]+0.015*[#  25]+0.012*[#  19]+0.007*[#  12]+0.005*[#  26]
          +0.004*[#  13]+0.002*[#  24]
    |psi|^2 = 0.988
==== e(  12) =    14.37730 eV ==== 
     psi = 0.313*[#  20]+0.243*[#  19]+0.149*[#   7]+0.136*[#   6]+0.069*[#  18]
          +0.027*[#   8]+0.009*[#   9]+0.009*[#  21]+0.008*[#   5]+0.007*[#  22]
          +0.006*[#  23]+0.005*[#  13]+0.005*[#  25]+0.003*[#  12]+0.002*[#  26]
          
    |psi|^2 = 0.993
==== e(  13) =    14.46087 eV ==== 
     psi = 0.301*[#   5]+0.235*[#   6]+0.174*[#   8]+0.083*[#   7]+0.076*[#   9]
          +0.045*[#  19]+0.025*[#  20]+0.022*[#  21]+0.020*[#  22]+0.013*[#  18]
          +0.001*[#  24]
    |psi|^2 = 0.997
==== e(  14) =    15.50234 eV ==== 
     psi = 0.157*[#  22]+0.107*[#  13]+0.105*[#   9]+0.099*[#  21]+0.088*[#  26]
          +0.066*[#  12]+0.064*[#  25]+0.058*[#  18]+0.045*[#   7]+0.038*[#   8]
          +0.037*[#   6]+0.028*[#   5]+0.023*[#  10]+0.022*[#  11]+0.019*[#  19]
          +0.015*[#  20]+0.012*[#  24]+0.010*[#  23]+0.001*[#   4]+0.001*[#  17]
          
    |psi|^2 = 0.999
==== e(  15) =    15.58367 eV ==== 
     psi = 0.331*[#   5]+0.222*[#   9]+0.196*[#   7]+0.145*[#   6]+0.081*[#   8]
          +0.007*[#  22]+0.005*[#  19]+0.003*[#  20]+0.003*[#  21]+0.002*[#  13]
          
    |psi|^2 = 1.000
==== e(  16) =    16.55451 eV ==== 
     psi = 0.357*[#  19]+0.240*[#  20]+0.184*[#  22]+0.089*[#  21]+0.050*[#   6]
          +0.023*[#   7]+0.017*[#   8]+0.015*[#   9]+0.012*[#  18]+0.011*[#   5]
          
    |psi|^2 = 0.999
==== e(  17) =    16.75216 eV ==== 
     psi = 0.295*[#  22]+0.150*[#  21]+0.114*[#  19]+0.107*[#   8]+0.104*[#   9]
          +0.081*[#  20]+0.057*[#   6]+0.033*[#   7]+0.017*[#  10]+0.014*[#  12]
          +0.012*[#  23]+0.010*[#  13]+0.004*[#   5]+0.001*[#  25]
    |psi|^2 = 0.999
==== e(  18) =    18.05285 eV ==== 
     psi = 0.232*[#  26]+0.144*[#  24]+0.097*[#  12]+0.086*[#  25]+0.079*[#  23]
          +0.070*[#  13]+0.070*[#  11]+0.039*[#   8]+0.034*[#  10]+0.032*[#   9]
          +0.030*[#   7]+0.030*[#  20]+0.015*[#  19]+0.014*[#   6]+0.008*[#  18]
          +0.004*[#   5]+0.004*[#  14]+0.002*[#  17]+0.002*[#  21]+0.001*[#   1]
          +0.001*[#  15]
    |psi|^2 = 0.999

 k =   0.4000000000  1.1547005384 -0.6531972647
==== e(   1) =   -85.17754 eV ==== 
     psi = 0.975*[#   1]+0.005*[#  25]+0.005*[#  26]+0.004*[#  24]+0.004*[#  10]
          +0.004*[#  13]+0.001*[#  12]+0.001*[#  11]
    |psi|^2 = 1.000
==== e(   2) =   -83.89594 eV ==== 
     psi = 0.975*[#  14]+0.005*[#  12]+0.005*[#  13]+0.004*[#  11]+0.004*[#  23]
          +0.004*[#  26]+0.001*[#  25]+0.001*[#  24]
    |psi|^2 = 1.000
==== e(   3) =   -45.86524 eV ==== 
     psi = 0.462*[#   4]+0.357*[#   2]+0.175*[#   3]+0.003*[#  13]
    |psi|^2 = 1.000
==== e(   4) =   -45.75901 eV ==== 
     psi = 0.568*[#   2]+0.301*[#   4]+0.126*[#   3]+0.003*[#  11]
    |psi|^2 = 1.000
==== e(   5) =   -45.58576 eV ==== 
     psi = 0.694*[#   3]+0.232*[#   4]+0.070*[#   2]
    |psi|^2 = 1.000
==== e(   6) =   -44.58388 eV ==== 
     psi = 0.521*[#  17]+0.281*[#  15]+0.190*[#  16]+0.002*[#  26]+0.001*[#   3]
          
    |psi|^2 = 1.000
==== e(   7) =   -44.46724 eV ==== 
     psi = 0.689*[#  15]+0.226*[#  17]+0.081*[#  16]+0.003*[#  24]
    |psi|^2 = 1.000
==== e(   8) =   -44.44073 eV ==== 
     psi = 0.725*[#  16]+0.246*[#  17]+0.026*[#  15]
    |psi|^2 = 1.000
==== e(   9) =    12.28277 eV ==== 
     psi = 0.357*[#   7]+0.162*[#   6]+0.090*[#  10]+0.070*[#   5]+0.066*[#  20]
          +0.042*[#  19]+0.037*[#  26]+0.026*[#  24]+0.023*[#  13]+0.022*[#  23]
          +0.021*[#   9]+0.017*[#  25]+0.014*[#  21]+0.013*[#  11]+0.008*[#   8]
          +0.008*[#  12]+0.007*[#  22]+0.003*[#  18]+0.002*[#   1]
    |psi|^2 = 0.990
==== e(  10) =    12.46410 eV ==== 
     psi = 0.372*[#   8]+0.171*[#   5]+0.132*[#   9]+0.068*[#  23]+0.044*[#  20]
          +0.040*[#  22]+0.028*[#  25]+0.024*[#  26]+0.020*[#   7]+0.018*[#  21]
          +0.018*[#   6]+0.015*[#  13]+0.015*[#  19]+0.013*[#  11]+0.012*[#  12]
          +0.001*[#  14]
    |psi|^2 = 0.994
==== e(  11) =    13.85475 eV ==== 
     psi = 0.326*[#  20]+0.199*[#  19]+0.125*[#   7]+0.094*[#   6]+0.068*[#   8]
          +0.051*[#  18]+0.028*[#   9]+0.023*[#  13]+0.018*[#  25]+0.018*[#  23]
          +0.012*[#  12]+0.009*[#  21]+0.009*[#  26]+0.006*[#  11]+0.005*[#  22]
          
    |psi|^2 = 0.990
==== e(  12) =    14.07613 eV ==== 
     psi = 0.268*[#   9]+0.168*[#   6]+0.098*[#  21]+0.094*[#   8]+0.058*[#   5]
          +0.056*[#   7]+0.054*[#  18]+0.034*[#  10]+0.033*[#  22]+0.031*[#  20]
          +0.025*[#  26]+0.022*[#  24]+0.018*[#  25]+0.012*[#  19]+0.011*[#  12]
          +0.006*[#  23]+0.004*[#  13]+0.001*[#  11]
    |psi|^2 = 0.994
==== e(  13) =    14.63497 eV ==== 
     psi = 0.322*[#   5]+0.264*[#   6]+0.183*[#   8]+0.091*[#   7]+0.080*[#   9]
          +0.021*[#  19]+0.011*[#  20]+0.009*[#  22]+0.008*[#  21]+0.005*[#  24]
          +0.001*[#  18]+0.001*[#  26]
    |psi|^2 = 0.998
==== e(  14) =    14.95096 eV ==== 
     psi = 0.237*[#  22]+0.153*[#  21]+0.153*[#  18]+0.091*[#  13]+0.059*[#  19]
          +0.058*[#   9]+0.055*[#  12]+0.034*[#  26]+0.032*[#  25]+0.024*[#   8]
          +0.022*[#  20]+0.019*[#  11]+0.017*[#  10]+0.012*[#   5]+0.011*[#   6]
          +0.011*[#   7]+0.003*[#  24]+0.002*[#  23]
    |psi|^2 = 0.996
==== e(  15) =    15.55763 eV ==== 
     psi = 0.334*[#   5]+0.200*[#   7]+0.193*[#   9]+0.147*[#   6]+0.071*[#   8]
          +0.020*[#  19]+0.012*[#  20]+0.011*[#  22]+0.007*[#  21]+0.002*[#  11]
          
    |psi|^2 = 1.000
==== e(  16) =    15.90464 eV ==== 
     psi = 0.235*[#  21]+0.146*[#  19]+0.139*[#  22]+0.070*[#  12]+0.061*[#  23]
          +0.051*[#   8]+0.049*[#  20]+0.044*[#   6]+0.038*[#  11]+0.038*[#  13]
          +0.036*[#   9]+0.032*[#  26]+0.019*[#  24]+0.015*[#   7]+0.011*[#  25]
          +0.007*[#  18]+0.002*[#  14]+0.002*[#  10]
    |psi|^2 = 0.997
==== e(  17) =    16.42325 eV ==== 
     psi = 0.365*[#  19]+0.229*[#  20]+0.193*[#  22]+0.109*[#  21]+0.041*[#   6]
          +0.025*[#   7]+0.021*[#   9]+0.012*[#   8]+0.002*[#  11]+0.001*[#  18]
          
    |psi|^2 = 0.999
==== e(  18) =    17.51546 eV ==== 
     psi = 0.137*[#  22]+0.107*[#  26]+0.096*[#  20]+0.091*[#   9]+0.073*[#  13]
          +0.069*[#  24]+0.068*[#  10]+0.062*[#   7]+0.048*[#  21]+0.045*[#  11]
          +0.041*[#  25]+0.041*[#  19]+0.031*[#  23]+0.030*[#   8]+0.027*[#  12]
          +0.025*[#   6]+0.003*[#   1]+0.003*[#  14]
    |psi|^2 = 0.999

 k =   0.6000000000  1.0392304845 -0.7348469228
==== e(   1) =   -85.17759 eV ==== 
     psi = 0.975*[#   1]+0.006*[#  26]+0.005*[#  24]+0.004*[#  10]+0.004*[#  13]
          +0.003*[#  25]+0.002*[#  11]+0.001*[#  12]
    |psi|^2 = 1.000
==== e(   2) =   -83.89583 eV ==== 
     psi = 0.975*[#  14]+0.006*[#  13]+0.004*[#  11]+0.004*[#  23]+0.004*[#  26]
          +0.003*[#  12]+0.002*[#  24]+0.001*[#  25]
    |psi|^2 = 1.000
==== e(   3) =   -45.86430 eV ==== 
[...]
==== e(  18) =    16.02033 eV ==== 
     psi = 0.411*[#   9]+0.249*[#   8]+0.077*[#   5]+0.056*[#  21]+0.037*[#  22]
          +0.033*[#  25]+0.032*[#   6]+0.022*[#   7]+0.015*[#  12]+0.014*[#  20]
          +0.011*[#  26]+0.011*[#  19]+0.009*[#  10]+0.006*[#  23]+0.005*[#  13]
          +0.004*[#  18]+0.003*[#  24]
    |psi|^2 = 0.998

 k =   0.2000000000  1.7320508076  1.2247448714
==== e(   1) =   -85.19388 eV ==== 
     psi = 0.943*[#  14]+0.021*[#  12]+0.012*[#  26]+0.007*[#  13]+0.005*[#  11]
          +0.005*[#  24]+0.005*[#  25]+0.002*[#  23]
    |psi|^2 = 1.000
==== e(   2) =   -83.90681 eV ==== 
     psi = 0.943*[#   1]+0.021*[#  25]+0.013*[#  13]+0.007*[#  26]+0.005*[#  11]
          +0.005*[#  24]+0.005*[#  12]+0.002*[#  10]
    |psi|^2 = 1.000
==== e(   3) =   -45.77629 eV ==== 
     psi = 0.616*[#  15]+0.261*[#  17]+0.117*[#  16]+0.001*[#  24]+0.001*[#  12]
          +0.001*[#  23]
    |psi|^2 = 1.000
==== e(   4) =   -45.73348 eV ==== 
     psi = 0.499*[#  17]+0.316*[#  15]+0.178*[#  16]+0.003*[#  24]+0.002*[#  26]
          
    |psi|^2 = 1.000
==== e(   5) =   -45.60100 eV ==== 
     psi = 0.699*[#  16]+0.233*[#  17]+0.062*[#  15]+0.002*[#  10]+0.001*[#  13]
          
    |psi|^2 = 1.000
==== e(   6) =   -44.47936 eV ==== 
     psi = 0.450*[#   2]+0.408*[#   4]+0.137*[#   3]+0.001*[#  10]+0.001*[#  25]
          
    |psi|^2 = 1.000
==== e(   7) =   -44.45321 eV ==== 
     psi = 0.578*[#   3]+0.257*[#   4]+0.159*[#   2]+0.002*[#  23]+0.001*[#  26]
          
    |psi|^2 = 1.000
==== e(   8) =   -44.43548 eV ==== 
     psi = 0.385*[#   2]+0.330*[#   4]+0.279*[#   3]+0.004*[#  11]+0.001*[#  13]
          
    |psi|^2 = 1.000
==== e(   9) =    11.64728 eV ==== 
     psi = 0.195*[#  10]+0.153*[#  23]+0.094*[#  25]+0.073*[#  13]+0.072*[#  26]
          +0.071*[#  24]+0.070*[#  12]+0.068*[#  11]+0.039*[#  19]+0.039*[#  20]
          +0.027*[#   7]+0.026*[#  21]+0.024*[#   6]+0.012*[#   1]+0.009*[#  14]
          +0.009*[#  22]+0.008*[#   8]+0.003*[#   9]+0.002*[#   5]
    |psi|^2 = 0.998
==== e(  10) =    12.14177 eV ==== 
     psi = 0.183*[#  23]+0.137*[#  12]+0.133*[#  10]+0.131*[#  25]+0.087*[#  26]
          +0.077*[#  21]+0.074*[#  13]+0.068*[#  18]+0.044*[#  22]+0.012*[#  20]
          +0.011*[#   8]+0.010*[#  14]+0.007*[#   1]+0.007*[#   9]+0.007*[#  19]
          +0.005*[#   5]+0.001*[#   3]+0.001*[#  16]
    |psi|^2 = 0.999
==== e(  11) =    13.46819 eV ==== 
     psi = 0.210*[#  20]+0.163*[#  18]+0.156*[#  21]+0.109*[#   9]+0.071*[#  19]
          +0.059*[#  22]+0.047*[#   8]+0.040*[#   5]+0.030*[#   6]+0.026*[#  12]
          +0.022*[#  13]+0.016*[#  26]+0.015*[#  23]+0.010*[#   7]+0.006*[#  25]
          +0.005*[#  24]+0.005*[#  10]+0.002*[#  14]
    |psi|^2 = 0.994
==== e(  12) =    13.92764 eV ==== 
     psi = 0.362*[#  22]+0.202*[#  19]+0.129*[#  21]+0.069*[#  20]+0.060*[#  18]
          +0.047*[#   8]+0.039*[#  12]+0.020*[#   9]+0.018*[#   6]+0.014*[#  13]
          +0.011*[#  11]+0.008*[#  23]+0.006*[#   7]+0.005*[#   5]+0.003*[#  25]
          +0.002*[#  24]+0.002*[#  26]
    |psi|^2 = 0.996
==== e(  13) =    14.37054 eV ==== 
     psi = 0.314*[#  20]+0.151*[#  19]+0.106*[#   9]+0.082*[#  22]+0.080*[#   6]
          +0.079*[#  21]+0.062*[#   5]+0.038*[#   7]+0.038*[#   8]+0.016*[#  10]
          +0.007*[#  13]+0.006*[#  26]+0.005*[#  11]+0.004*[#  12]+0.003*[#  25]
          +0.002*[#  24]+0.001*[#  23]
    |psi|^2 = 0.995
==== e(  14) =    14.48935 eV ==== 
     psi = 0.632*[#  18]+0.126*[#  21]+0.118*[#  22]+0.085*[#  20]+0.029*[#  19]
          +0.002*[#  24]+0.002*[#  11]+0.001*[#   9]
    |psi|^2 = 0.999
==== e(  15) =    14.90749 eV ==== 
     psi = 0.373*[#  19]+0.198*[#  20]+0.168*[#  22]+0.128*[#  21]+0.045*[#   6]
          +0.029*[#   7]+0.025*[#   9]+0.015*[#  18]+0.014*[#   8]
    |psi|^2 = 0.998
==== e(  16) =    15.14793 eV ==== 
     psi = 0.515*[#   7]+0.239*[#   6]+0.054*[#   5]+0.049*[#   9]+0.021*[#  23]
          +0.020*[#   8]+0.017*[#  13]+0.012*[#  11]+0.010*[#  25]+0.009*[#  21]
          +0.008*[#  20]+0.008*[#  12]+0.007*[#  10]+0.005*[#  19]+0.005*[#  24]
          +0.005*[#  26]+0.005*[#  22]+0.002*[#   1]
    |psi|^2 = 0.992
==== e(  17) =    15.97666 eV ==== 
     psi = 0.301*[#   6]+0.246*[#   7]+0.182*[#   9]+0.094*[#   5]+0.066*[#   8]
          +0.049*[#  19]+0.022*[#  20]+0.015*[#  22]+0.012*[#  21]+0.008*[#  18]
          +0.001*[#  11]
    |psi|^2 = 0.998
==== e(  18) =    16.04883 eV ==== 
     psi = 0.257*[#   9]+0.208*[#  21]+0.109*[#   8]+0.085*[#   6]+0.069*[#  22]
          +0.052*[#  19]+0.051*[#  25]+0.046*[#   7]+0.032*[#  10]+0.025*[#  18]
          +0.024*[#  20]+0.017*[#  26]+0.010*[#  24]+0.004*[#  13]+0.003*[#   5]
          +0.003*[#   1]+0.001*[#  11]+0.001*[#  12]
    |psi|^2 = 0.999

 k =   0.4000000000  1.6165807537  1.1430952133
==== e(   1) =   -85.19403 eV ==== 
     psi = 0.949*[#  14]+0.017*[#  12]+0.013*[#  26]+0.006*[#  13]+0.006*[#  25]
          +0.004*[#  24]+0.002*[#  11]+0.001*[#  23]
    |psi|^2 = 1.000
==== e(   2) =   -83.90684 eV ==== 
     psi = 0.949*[#   1]+0.017*[#  25]+0.013*[#  13]+0.006*[#  26]+0.005*[#  12]
          +0.005*[#  11]+0.002*[#  24]+0.001*[#  10]
    |psi|^2 = 1.000
==== e(   3) =   -45.77658 eV ==== 
     psi = 0.623*[#  15]+0.258*[#  17]+0.113*[#  16]+0.002*[#  24]+0.001*[#  12]
          +0.001*[#  23]
    |psi|^2 = 1.000
==== e(   4) =   -45.73367 eV ==== 
     psi = 0.503*[#  17]+0.311*[#  15]+0.180*[#  16]+0.003*[#  24]+0.002*[#  26]
          
    |psi|^2 = 1.000
==== e(   5) =   -45.60299 eV ==== 
     psi = 0.700*[#  16]+0.233*[#  17]+0.058*[#  15]+0.002*[#  10]+0.001*[#  13]
          +0.001*[#   3]+0.001*[#  12]+0.001*[#  11]
    |psi|^2 = 1.000
==== e(   6) =   -44.47898 eV ==== 
     psi = 0.430*[#   4]+0.409*[#   2]+0.155*[#   3]+0.002*[#  25]+0.001*[#  10]
          
    |psi|^2 = 1.000
==== e(   7) =   -44.45187 eV ==== 
     psi = 0.530*[#   3]+0.237*[#   2]+0.226*[#   4]+0.001*[#  24]+0.001*[#  23]
          +0.001*[#  26]
    |psi|^2 = 1.000
==== e(   8) =   -44.43498 eV ==== 
     psi = 0.346*[#   2]+0.338*[#   4]+0.308*[#   3]+0.004*[#  11]+0.002*[#  13]
          
    |psi|^2 = 1.000
==== e(   9) =    10.95273 eV ==== 
     psi = 0.239*[#  10]+0.235*[#  23]+0.121*[#  25]+0.110*[#  12]+0.096*[#  26]
          +0.093*[#  13]+0.027*[#  21]+0.014*[#   1]+0.013*[#  14]+0.013*[#  18]
          +0.009*[#  22]+0.007*[#   8]+0.004*[#  20]+0.003*[#  11]+0.003*[#   5]
          +0.002*[#   9]+0.002*[#  19]+0.002*[#  24]
    |psi|^2 = 0.999
==== e(  10) =    12.49675 eV ==== 
     psi = 0.148*[#  19]+0.138*[#  20]+0.092*[#  23]+0.092*[#  10]+0.071*[#   6]
          +0.065*[#   7]+0.050*[#  25]+0.045*[#  18]+0.044*[#  12]+0.038*[#  26]
          +0.037*[#  24]+0.036*[#  13]+0.035*[#  11]+0.030*[#  22]+0.019*[#   5]
          +0.018*[#  21]+0.015*[#   9]+0.010*[#   8]+0.003*[#   1]+0.003*[#  14]
          
    |psi|^2 = 0.994
==== e(  11) =    13.49757 eV ==== 
     psi = 0.299*[#  21]+0.198*[#  18]+0.106*[#  22]+0.084*[#   9]+0.058*[#  12]
          +0.053*[#  20]+0.043*[#   8]+0.026*[#  13]+0.019*[#   5]+0.019*[#  19]
          +0.018*[#  23]+0.015*[#  25]+0.014*[#   7]+0.013*[#  26]+0.013*[#  24]
          +0.011*[#   6]+0.003*[#  14]+0.001*[#  11]
    |psi|^2 = 0.996
==== e(  12) =    13.89133 eV ==== 
     psi = 0.389*[#  22]+0.238*[#  20]+0.130*[#  21]+0.110*[#  19]+0.035*[#   8]
          +0.021*[#  26]+0.018*[#   9]+0.013*[#   7]+0.013*[#  25]+0.009*[#   6]
          +0.005*[#   5]+0.004*[#  12]+0.004*[#  24]+0.003*[#  18]+0.001*[#  13]
          +0.001*[#  23]
    |psi|^2 = 0.996
==== e(  13) =    14.41828 eV ==== 
     psi = 0.623*[#  18]+0.129*[#  21]+0.092*[#  22]+0.074*[#  20]+0.033*[#  19]
          +0.016*[#   6]+0.009*[#   9]+0.008*[#   7]+0.007*[#   8]+0.003*[#   5]
          +0.002*[#  24]
    |psi|^2 = 0.998
==== e(  14) =    14.54358 eV ==== 
     psi = 0.181*[#  20]+0.178*[#  19]+0.172*[#   9]+0.141*[#   6]+0.067*[#   8]
          +0.050*[#   7]+0.046*[#  18]+0.034*[#   5]+0.024*[#  22]+0.018*[#  13]
          +0.017*[#  12]+0.017*[#  21]+0.016*[#  11]+0.015*[#  10]+0.012*[#  23]
          +0.003*[#  26]+0.002*[#  24]+0.002*[#  25]
    |psi|^2 = 0.996
==== e(  15) =    14.93614 eV ==== 
     psi = 0.396*[#  19]+0.232*[#  20]+0.199*[#  22]+0.125*[#  21]+0.016*[#   6]
          +0.009*[#   8]+0.008*[#   5]+0.006*[#   7]+0.006*[#   9]
    |psi|^2 = 0.998
==== e(  16) =    15.37391 eV ==== 
     psi = 0.493*[#   7]+0.187*[#   6]+0.090*[#   9]+0.056*[#   5]+0.032*[#   8]
          +0.018*[#  21]+0.018*[#  23]+0.016*[#  13]+0.014*[#  11]+0.012*[#  20]
          +0.012*[#  25]+0.012*[#  22]+0.011*[#  12]+0.006*[#  19]+0.005*[#  26]
          +0.005*[#  24]+0.004*[#  10]+0.002*[#  18]+0.001*[#   1]
    |psi|^2 = 0.994
==== e(  17) =    15.91256 eV ==== 
     psi = 0.296*[#   6]+0.246*[#   7]+0.225*[#   9]+0.106*[#   5]+0.081*[#   8]
          +0.018*[#  18]+0.009*[#  19]+0.009*[#  21]+0.003*[#  20]+0.003*[#  22]
          +0.002*[#  11]
    |psi|^2 = 0.998
==== e(  18) =    16.38455 eV ==== 
     psi = 0.179*[#  21]+0.152*[#   9]+0.128*[#   8]+0.103*[#   5]+0.071*[#  25]
          +0.070*[#  22]+0.047*[#  19]+0.040*[#  20]+0.034*[#  10]+0.027*[#  18]
          +0.024*[#  26]+0.023*[#   6]+0.023*[#  12]+0.021*[#  13]+0.020*[#  11]
          +0.015*[#  24]+0.008*[#   7]+0.008*[#  23]+0.003*[#   1]
    |psi|^2 = 0.999

 k =   0.6000000000  1.5011106999  1.0614455552
==== e(   1) =   -85.19425 eV ==== 
     psi = 0.960*[#  14]+0.016*[#  26]+0.006*[#  25]+0.006*[#  24]+0.006*[#  12]
          +0.004*[#  13]+0.002*[#  10]
    |psi|^2 = 1.000
==== e(   2) =   -83.90680 eV ==== 
     psi = 0.960*[#   1]+0.016*[#  13]+0.006*[#  12]+0.006*[#  11]+0.005*[#  25]
          +0.004*[#  26]+0.002*[#  23]
    |psi|^2 = 1.000
==== e(   3) =   -45.77613 eV ==== 
     psi = 0.630*[#  15]+0.254*[#  17]+0.111*[#  16]+0.002*[#  23]+0.001*[#  24]
          
    |psi|^2 = 1.000
==== e(   4) =   -45.73358 eV ==== 
     psi = 0.507*[#  17]+0.305*[#  15]+0.181*[#  16]+0.003*[#  24]+0.002*[#  26]
          
    |psi|^2 = 1.000
==== e(   5) =   -45.60665 eV ==== 
     psi = 0.697*[#  16]+0.232*[#  17]+0.057*[#  15]+0.004*[#  12]+0.004*[#   3]
          +0.002*[#  13]+0.001*[#   4]+0.001*[#  11]+0.001*[#   2]
    |psi|^2 = 1.000
==== e(   6) =   -44.47961 eV ==== 
     psi = 0.440*[#   4]+0.392*[#   2]+0.164*[#   3]+0.002*[#  10]
    |psi|^2 = 1.000
==== e(   7) =   -44.44797 eV ==== 
     psi = 0.454*[#   3]+0.318*[#   2]+0.215*[#   4]+0.003*[#  25]+0.003*[#  16]
          +0.002*[#  24]+0.001*[#  26]+0.001*[#  15]
    |psi|^2 = 1.000
==== e(   8) =   -44.43427 eV ==== 
     psi = 0.371*[#   3]+0.338*[#   4]+0.282*[#   2]+0.003*[#  11]+0.001*[#  13]
          +0.001*[#  25]
    |psi|^2 = 1.000
==== e(   9) =    10.17138 eV ==== 
     psi = 0.292*[#  23]+0.290*[#  10]+0.099*[#  13]+0.099*[#  26]+0.060*[#  25]
          +0.059*[#  12]+0.020*[#  11]+0.019*[#  24]+0.015*[#   1]+0.014*[#  14]
          +0.007*[#  21]+0.004*[#  22]+0.004*[#  20]+0.003*[#   8]+0.002*[#  18]
          +0.002*[#  19]+0.002*[#   9]+0.002*[#   7]+0.001*[#   6]
    |psi|^2 = 1.000
==== e(  10) =    12.75526 eV ==== 
     psi = 0.173*[#  19]+0.149*[#  20]+0.131*[#  18]+0.091*[#  22]+0.080*[#   6]
          +0.055*[#  10]+0.052*[#   7]+0.050*[#  23]+0.049*[#   9]+0.036*[#   5]
          +0.034*[#  21]+0.019*[#  13]+0.017*[#   8]+0.015*[#  26]+0.013*[#  11]
          +0.012*[#  24]+0.009*[#  25]+0.008*[#  12]
    |psi|^2 = 0.994
==== e(  11) =    13.71524 eV ==== 
     psi = 0.222*[#  21]+0.175*[#  22]+0.129*[#  20]+0.092*[#   7]+0.075*[#   9]
          +0.060*[#  19]+0.049*[#  12]+0.042*[#   8]+0.041*[#  18]+0.036*[#  25]
          +0.032*[#   6]+0.023*[#  13]+0.014*[#  26]+0.002*[#  24]+0.001*[#   5]
          
    |psi|^2 = 0.996
==== e(  12) =    13.74930 eV ==== 
     psi = 0.266*[#  21]+0.222*[#  20]+0.205*[#  22]+0.106*[#  19]+0.095*[#  18]
          +0.025*[#  26]+0.015*[#  12]+0.015*[#  24]+0.013*[#  23]+0.009*[#  25]
          +0.006*[#   8]+0.005*[#  13]+0.004*[#   9]+0.003*[#   5]+0.003*[#  10]
          +0.002*[#  11]+0.001*[#  14]
    |psi|^2 = 0.997
==== e(  13) =    14.36091 eV ==== 
     psi = 0.603*[#  18]+0.126*[#  21]+0.092*[#  22]+0.078*[#  20]+0.031*[#  19]
          +0.025*[#   6]+0.011*[#   8]+0.011*[#   9]+0.011*[#   7]+0.006*[#   5]
          +0.003*[#  24]
    |psi|^2 = 0.998
==== e(  14) =    14.80613 eV ==== 
     psi = 0.216*[#   6]+0.155*[#   9]+0.136*[#  19]+0.115*[#   7]+0.077*[#  20]
          +0.071*[#  22]+0.064*[#   5]+0.061*[#   8]+0.049*[#  18]+0.025*[#  21]
          +0.006*[#  13]+0.005*[#  10]+0.005*[#  11]+0.005*[#  12]+0.004*[#  23]
          +0.001*[#  25]
    |psi|^2 = 0.996
==== e(  15) =    14.93181 eV ==== 
     psi = 0.389*[#  19]+0.224*[#  20]+0.198*[#  22]+0.135*[#  21]+0.030*[#   5]
          +0.006*[#  18]+0.005*[#   8]+0.003*[#   9]+0.003*[#   7]+0.002*[#  11]
          +0.001*[#   6]
    |psi|^2 = 0.998
==== e(  16) =    15.53525 eV ==== 
     psi = 0.366*[#   7]+0.179*[#   9]+0.124*[#   6]+0.075*[#  21]+0.067*[#  22]
          +0.061*[#   8]+0.058*[#  20]+0.024*[#  19]+0.009*[#  18]+0.008*[#   5]
          +0.008*[#  13]+0.006*[#  11]+0.004*[#  25]+0.004*[#  12]+0.001*[#  23]
          +0.001*[#  10]+0.001*[#  26]
    |psi|^2 = 0.997
==== e(  17) =    15.92173 eV ==== 
     psi = 0.309*[#   6]+0.248*[#   7]+0.225*[#   9]+0.083*[#   5]+0.082*[#   8]
          +0.020*[#  18]+0.010*[#  22]+0.008*[#  20]+0.005*[#  19]+0.004*[#  21]
          +0.002*[#  11]
    |psi|^2 = 0.998
==== e(  18) =    16.47429 eV ==== 
     psi = 0.357*[#   8]+0.173*[#   5]+0.128*[#   9]+0.079*[#  25]+0.042*[#  12]
          +0.027*[#  21]+0.026*[#  26]+0.025*[#   7]+0.021*[#  13]+0.021*[#  20]
          +0.021*[#  11]+0.021*[#  22]+0.013*[#  24]+0.012*[#   6]+0.011*[#  19]
          +0.007*[#  23]+0.005*[#  10]+0.003*[#  18]+0.001*[#   1]
    |psi|^2 = 0.996

 k =   0.8000000000  1.3856406461  0.9797958971
==== e(   1) =   -85.19420 eV ==== 
     psi = 0.960*[#  14]+0.017*[#  26]+0.007*[#  24]+0.006*[#  25]+0.004*[#  13]
          +0.003*[#  11]+0.002*[#  12]+0.001*[#  10]
    |psi|^2 = 1.000
==== e(   2) =   -83.90676 eV ==== 
     psi = 0.960*[#   1]+0.016*[#  13]+0.007*[#  11]+0.006*[#  12]+0.004*[#  26]
          +0.003*[#  24]+0.002*[#  25]+0.001*[#  23]
    |psi|^2 = 1.000
==== e(   3) =   -45.77561 eV ==== 
     psi = 0.627*[#  15]+0.255*[#  17]+0.114*[#  16]+0.002*[#  23]+0.001*[#  24]
          
    |psi|^2 = 1.000
==== e(   4) =   -45.73332 eV ==== 
     psi = 0.506*[#  17]+0.307*[#  15]+0.180*[#  16]+0.003*[#  24]+0.002*[#  26]
          
    |psi|^2 = 1.000
==== e(   5) =   -45.60701 eV ==== 
     psi = 0.695*[#  16]+0.232*[#  17]+0.059*[#  15]+0.005*[#  12]+0.005*[#   3]
          +0.002*[#  13]+0.002*[#   4]
    |psi|^2 = 1.000
==== e(   6) =   -44.48019 eV ==== 
     psi = 0.428*[#   4]+0.418*[#   2]+0.150*[#   3]+0.002*[#  10]
    |psi|^2 = 1.000
==== e(   7) =   -44.44705 eV ==== 
     psi = 0.464*[#   3]+0.284*[#   2]+0.238*[#   4]+0.004*[#  25]+0.004*[#  16]
          +0.002*[#  26]+0.001*[#  17]
    |psi|^2 = 1.000
==== e(   8) =   -44.43449 eV ==== 
     psi = 0.374*[#   3]+0.327*[#   4]+0.291*[#   2]+0.003*[#  11]+0.001*[#  13]
          +0.001*[#  25]
    |psi|^2 = 1.000
==== e(   9) =    10.06239 eV ==== 
     psi = 0.294*[#  23]+0.292*[#  10]+0.100*[#  13]+0.097*[#  26]+0.051*[#  11]
          +0.050*[#  24]+0.033*[#  12]+0.032*[#  25]+0.016*[#   1]+0.015*[#  14]
          +0.005*[#  20]+0.003*[#  22]+0.003*[#   7]+0.002*[#   9]+0.002*[#  19]
          +0.001*[#  21]
    |psi|^2 = 1.000
==== e(  10) =    12.87053 eV ==== 
     psi = 0.163*[#  18]+0.158*[#  22]+0.134*[#  19]+0.091*[#  20]+0.076*[#  21]
          +0.069*[#   9]+0.056*[#   6]+0.051*[#  23]+0.050*[#  10]+0.028*[#   5]
          +0.024*[#   7]+0.023*[#   8]+0.022*[#  13]+0.018*[#  26]+0.013*[#  12]
          +0.010*[#  25]+0.005*[#  11]+0.005*[#  24]
    |psi|^2 = 0.996
==== e(  11) =    13.61168 eV ==== 
     psi = 0.344*[#  20]+0.151*[#  22]+0.121*[#  21]+0.115*[#  19]+0.080*[#  18]
          +0.057*[#   9]+0.032*[#   8]+0.025*[#   7]+0.022*[#  26]+0.011*[#  25]
          +0.009*[#   6]+0.008*[#   5]+0.006*[#  24]+0.005*[#  23]+0.004*[#  13]
          +0.002*[#  11]+0.001*[#  12]
    |psi|^2 = 0.995
==== e(  12) =    13.88801 eV ==== 
     psi = 0.341*[#  21]+0.119*[#  22]+0.114*[#  19]+0.094*[#   7]+0.082*[#  20]
          +0.055*[#  12]+0.049*[#   6]+0.048*[#  18]+0.033*[#  25]+0.021*[#  13]
          +0.014*[#   5]+0.011*[#  26]+0.004*[#  24]+0.004*[#  11]+0.003*[#   9]
          +0.002*[#   8]
    |psi|^2 = 0.996
==== e(  13) =    14.38814 eV ==== 
     psi = 0.592*[#  18]+0.116*[#  21]+0.107*[#  22]+0.094*[#  20]+0.032*[#  19]
          +0.021*[#   6]+0.009*[#   7]+0.009*[#   9]+0.009*[#   8]+0.004*[#   5]
          +0.003*[#  24]+0.001*[#  26]
    |psi|^2 = 0.998
==== e(  14) =    14.83634 eV ==== 
     psi = 0.215*[#   6]+0.160*[#   7]+0.146*[#  19]+0.126*[#   9]+0.094*[#   5]
          +0.088*[#  22]+0.054*[#  20]+0.043*[#   8]+0.038*[#  21]+0.019*[#  18]
          +0.005*[#  23]+0.003*[#  10]+0.002*[#  12]+0.002*[#  13]
    |psi|^2 = 0.995
==== e(  15) =    14.91000 eV ==== 
     psi = 0.351*[#  19]+0.186*[#  20]+0.181*[#  22]+0.151*[#  21]+0.041*[#   5]
          +0.033*[#  18]+0.018*[#   6]+0.015*[#   7]+0.011*[#   9]+0.005*[#   8]
          +0.003*[#  11]
    |psi|^2 = 0.998
==== e(  16) =    15.44521 eV ==== 
     psi = 0.291*[#   7]+0.203*[#   9]+0.101*[#   6]+0.097*[#  22]+0.095*[#   8]
          +0.089*[#  20]+0.061*[#  21]+0.031*[#  19]+0.008*[#  13]+0.005*[#  12]
          +0.005*[#  18]+0.004*[#  10]+0.002*[#  11]+0.001*[#  23]
    |psi|^2 = 0.997
==== e(  17) =    15.98177 eV ==== 
     psi = 0.310*[#   6]+0.242*[#   7]+0.206*[#   9]+0.078*[#   8]+0.059*[#   5]
          +0.032*[#  19]+0.026*[#  20]+0.024*[#  22]+0.009*[#  18]+0.009*[#  21]
          +0.002*[#  11]
    |psi|^2 = 0.998
==== e(  18) =    16.37222 eV ==== 
     psi = 0.374*[#   8]+0.145*[#   9]+0.112*[#   5]+0.096*[#  25]+0.061*[#   7]
          +0.057*[#   6]+0.051*[#  12]+0.032*[#  26]+0.019*[#  13]+0.015*[#  11]
          +0.012*[#  24]+0.005*[#  20]+0.004*[#  21]+0.003*[#  10]+0.003*[#  22]
          +0.002*[#  19]+0.001*[#  23]
    |psi|^2 = 0.996

Lowdin Charges: 

     Atom #   1: total charge =  17.9646, s =  2.4486, p =  7.0637, d =  8.4523, 
                 spin up      =   9.4796, s =  1.2271, 
                 spin up      =   9.4796, p =  3.5216, pz=  1.1649, px=  1.1874, py=  1.1693, 
                 spin up      =   9.4796, d =  4.7309, dz2=  0.9435, dxz=  0.9489, dyz=  0.9551, dx2-y2=  0.9413, dxy=  0.9421, 
                 spin down    =   8.4851, s =  1.2215, 
                 spin down    =   8.4851, p =  3.5421, pz=  1.1860, px=  1.1725, py=  1.1836, 
                 spin down    =   8.4851, d =  3.7214, dz2=  0.5415, dxz=  0.8617, dyz=  0.8655, dx2-y2=  0.6326, dxy=  0.8201, 
                 polarization =   0.9945, s =  0.0055, p = -0.0206, d =  1.0095, 
     Atom #   2: total charge =  17.9655, s =  2.4487, p =  7.0638, d =  8.4530, 
                 spin up      =   8.4855, s =  1.2216, 
                 spin up      =   8.4855, p =  3.5421, pz=  1.1860, px=  1.1725, py=  1.1835, 
                 spin up      =   8.4855, d =  3.7218, dz2=  0.5417, dxz=  0.8617, dyz=  0.8654, dx2-y2=  0.6328, dxy=  0.8202, 
                 spin down    =   9.4800, s =  1.2271, 
                 spin down    =   9.4800, p =  3.5217, pz=  1.1650, px=  1.1874, py=  1.1693, 
                 spin down    =   9.4800, d =  4.7312, dz2=  0.9435, dxz=  0.9490, dyz=  0.9552, dx2-y2=  0.9414, dxy=  0.9422, 
                 polarization =  -0.9945, s = -0.0056, p =  0.0205, d = -1.0094, 
     Spilling Parameter:   0.0019
 
     PROJWFC      :      0.54s CPU      0.74s WALL

 
   This run was terminated on:  17:37: 3  22May2025            

=------------------------------------------------------------------------------=
   JOB DONE.
=------------------------------------------------------------------------------=
