
     Program PWSCF v.7.3 starts on 22May2025 at 17:36:34 
        Git branch: HEAD
        Last git commit: 86535f777cf6580630c3ad900c934576e98012c6
        Last git commit date: Fri Dec 15 21:03:38 2023 +0000
        Last git commit subject: Merge branch 'develop' into 'master'

     This program is part of the open-source Quantum ESPRESSO suite
     for quantum simulation of materials; please cite
         "P. Giannozzi et al., J. Phys.:Condens. Matter 21 395502 (2009);
         "P. Giannozzi et al., J. Phys.:Condens. Matter 29 465901 (2017);
         "P. Giannozzi et al., J. Chem. Phys. 152 154105 (2020);
          URL http://www.quantum-espresso.org", 
     in publications or presentations arising from this work. More details at
     http://www.quantum-espresso.org/quote

     Parallel version (MPI), running on     4 processors

     MPI processes distributed on     1 nodes
     31993 MiB available memory on the printing compute node when the environment starts
 
     Waiting for input...
     Reading input from standard input

     Current dimensions of program PWSCF are:
     Max number of different atomic species (ntypx) = 10
     Max number of k-points (npk) =  40000
     Max angular momentum in pseudopotentials (lmaxx) =  4
     Message from routine setup:
     using ibrav=0 with symmetry is DISCOURAGED, use correct ibrav instead
 
     K-points division:     npool     =       4
     Subspace diagonalization in iterative solution of the eigenvalue problem:
     a serial algorithm will be used

 
     G-vector sticks info
     --------------------
     sticks:   dense  smooth     PW     G-vecs:    dense   smooth      PW
     Sum         479     479    169                 4933     4933    1033
 
     Using Slab Decomposition
 


     bravais-lattice index     =            0
     lattice parameter (alat)  =       9.3691  a.u.
     unit-cell volume          =     145.3870 (a.u.)^3
     number of atoms/cell      =            2
     number of atomic types    =            2
     number of electrons       =        36.00
     number of Kohn-Sham states=           18
     kinetic-energy cutoff     =      40.0000  Ry
     charge density cutoff     =     160.0000  Ry
     scf convergence threshold =      1.0E-06
     mixing beta               =       0.7000
     number of iterations used =            8  plain     mixing
     Exchange-correlation= SLA  PW   PSX  PSC
                           (   1   4  10   8   0   0   0)
     Hubbard projectors: ortho-atomic
     Hubbard parameters of DFT+U (Dudarev formulation) in eV:
     U(Ni-3d) =  4.0000
     U(Ni1-3d) =  4.0000

     Internal variables: lda_plus_u = T, lda_plus_u_kind = 0

     celldm(1)=   9.369149  celldm(2)=   0.000000  celldm(3)=   0.000000
     celldm(4)=   0.000000  celldm(5)=   0.000000  celldm(6)=   0.000000

     crystal axes: (cart. coord. in units of alat)
               a(1) = (   1.000000   0.000000   0.000000 )  
               a(2) = (   0.250000   0.433013   0.000000 )  
               a(3) = (   0.250000   0.144338   0.408248 )  

     reciprocal axes: (cart. coord. in units 2 pi/alat)
               b(1) = (  1.000000 -0.577350 -0.408248 )  
               b(2) = (  0.000000  2.309401 -0.816497 )  
               b(3) = (  0.000000  0.000000  2.449490 )  


     PseudoPot. # 1 for Ni read from file:
     ./Ni.UPF
     MD5 check sum: de937c0c8ae4b350e69c02b76d8a83cb
     Pseudo is Ultrasoft + core correction, Zval = 18.0
     Generated by new atomic code, or converted to UPF format
     Using radial grid of  865 points,  6 beta functions with: 
                l(1) =   0
                l(2) =   0
                l(3) =   1
                l(4) =   1
                l(5) =   2
                l(6) =   2
     Q(r) pseudized with 10 coefficients,  rinner =    0.980   0.980   0.980
                                                       0.980   0.980

     PseudoPot. # 2 for Ni read from file:
     ./Ni.UPF
     MD5 check sum: de937c0c8ae4b350e69c02b76d8a83cb
     Pseudo is Ultrasoft + core correction, Zval = 18.0
     Generated by new atomic code, or converted to UPF format
     Using radial grid of  865 points,  6 beta functions with: 
                l(1) =   0
                l(2) =   0
                l(3) =   1
                l(4) =   1
                l(5) =   2
                l(6) =   2
     Q(r) pseudized with 10 coefficients,  rinner =    0.980   0.980   0.980
                                                       0.980   0.980

     atomic species   valence    mass     pseudopotential
     Ni               18.00    58.69340     Ni( 1.00)
     Ni1              18.00    58.69340     Ni( 1.00)

     Starting magnetic structure 
     atomic species   magnetization
     Ni              0.100
     Ni1            -0.100

      4 Sym. Ops., with inversion, found


                                    s                        frac. trans.

      isym =  1     identity                                     

 cryst.   s( 1) = (     1          0          0      )
                  (     0          1          0      )
                  (     0          0          1      )

 cart.    s( 1) = (  1.0000000  0.0000000  0.0000000 )
                  (  0.0000000  1.0000000  0.0000000 )
                  (  0.0000000  0.0000000  1.0000000 )


      isym =  2     180 deg rotation - cryst. axis [1,1,0]       

 cryst.   s( 2) = (    -1          2          0      )
                  (     0          1          0      )
                  (     0          1         -1      )

 cart.    s( 2) = ( -0.5000000  0.8660254  0.0000000 )
                  (  0.8660254  0.5000000  0.0000000 )
                  (  0.0000000  0.0000000 -1.0000000 )


      isym =  3     inversion                                    

 cryst.   s( 3) = (    -1          0          0      )
                  (     0         -1          0      )
                  (     0          0         -1      )

 cart.    s( 3) = ( -1.0000000  0.0000000  0.0000000 )
                  (  0.0000000 -1.0000000  0.0000000 )
                  (  0.0000000  0.0000000 -1.0000000 )


      isym =  4     inv. 180 deg rotation - cryst. axis [1,1,0]  

 cryst.   s( 4) = (     1         -2          0      )
                  (     0         -1          0      )
                  (     0         -1          1      )

 cart.    s( 4) = (  0.5000000 -0.8660254 -0.0000000 )
                  ( -0.8660254 -0.5000000 -0.0000000 )
                  (  0.0000000  0.0000000  1.0000000 )


   Cartesian axes

     site n.     atom                  positions (alat units)
         1        Ni     tau(   1) = (   0.0000000   0.0000000   0.0000000  )
         2        Ni1    tau(   2) = (   0.5000000   0.0000000   0.0000000  )

   Crystallographic axes

     site n.     atom                  positions (cryst. coord.)
         1        Ni     tau(   1) = (  0.0000000  0.0000000  0.0000000  )
         2        Ni1    tau(   2) = (  0.5000000  0.0000000  0.0000000  )

     number of k points=   108  Gaussian smearing, width (Ry)=  0.0100
                       cart. coord. in units 2pi/alat
        k(    1) = (   0.0833333   0.1443376   0.1020621), wk =   0.0092593
        k(    2) = (   0.0833333   0.1443376   0.5103104), wk =   0.0092593
        k(    3) = (   0.0833333   0.1443376   0.9185587), wk =   0.0092593
        k(    4) = (   0.0833333   0.1443376  -1.1226828), wk =   0.0092593
        k(    5) = (   0.0833333   0.1443376  -0.7144345), wk =   0.0092593
        k(    6) = (   0.0833333   0.1443376  -0.3061862), wk =   0.0092593
        k(    7) = (   0.0833333   0.5292377  -0.0340207), wk =   0.0092593
        k(    8) = (   0.0833333   0.5292377   0.3742276), wk =   0.0092593
        k(    9) = (   0.0833333   0.5292377   0.7824759), wk =   0.0092593
        k(   10) = (   0.0833333   0.5292377  -1.2587656), wk =   0.0092593
        k(   11) = (   0.0833333   0.5292377  -0.8505173), wk =   0.0092593
        k(   12) = (   0.0833333   0.5292377  -0.4422690), wk =   0.0092593
        k(   13) = (   0.0833333   0.9141379  -0.1701035), wk =   0.0092593
        k(   14) = (   0.0833333   0.9141379   0.2381448), wk =   0.0092593
        k(   15) = (   0.0833333   0.9141379   0.6463931), wk =   0.0092593
        k(   16) = (   0.0833333   0.9141379  -1.3948483), wk =   0.0092593
        k(   17) = (   0.0833333   0.9141379  -0.9866000), wk =   0.0092593
        k(   18) = (   0.0833333   0.9141379  -0.5783517), wk =   0.0092593
        k(   19) = (   0.0833333  -1.0103630   0.5103104), wk =   0.0092593
        k(   20) = (   0.0833333  -1.0103630   0.9185587), wk =   0.0092593
        k(   21) = (   0.0833333  -1.0103630   1.3268069), wk =   0.0092593
        k(   22) = (   0.0833333  -1.0103630  -0.7144345), wk =   0.0092593
        k(   23) = (   0.0833333  -1.0103630  -0.3061862), wk =   0.0092593
        k(   24) = (   0.0833333  -1.0103630   0.1020621), wk =   0.0092593
        k(   25) = (   0.0833333  -0.6254628   0.3742276), wk =   0.0092593
        k(   26) = (   0.0833333  -0.6254628   0.7824759), wk =   0.0092593
        k(   27) = (   0.0833333  -0.6254628   1.1907242), wk =   0.0092593
        k(   28) = (   0.0833333  -0.6254628  -0.8505173), wk =   0.0092593
        k(   29) = (   0.0833333  -0.6254628  -0.4422690), wk =   0.0092593
        k(   30) = (   0.0833333  -0.6254628  -0.0340207), wk =   0.0092593
        k(   31) = (   0.0833333  -0.2405626   0.2381448), wk =   0.0092593
        k(   32) = (   0.0833333  -0.2405626   0.6463931), wk =   0.0092593
        k(   33) = (   0.0833333  -0.2405626   1.0546414), wk =   0.0092593
        k(   34) = (   0.0833333  -0.2405626  -0.9866000), wk =   0.0092593
        k(   35) = (   0.0833333  -0.2405626  -0.5783517), wk =   0.0092593
        k(   36) = (   0.0833333  -0.2405626  -0.1701035), wk =   0.0092593
        k(   37) = (   0.2500000   0.0481125   0.0340207), wk =   0.0092593
        k(   38) = (   0.2500000   0.0481125   0.4422690), wk =   0.0092593
        k(   39) = (   0.2500000   0.0481125   0.8505173), wk =   0.0092593
        k(   40) = (   0.2500000   0.0481125  -1.1907242), wk =   0.0092593
        k(   41) = (   0.2500000   0.0481125  -0.7824759), wk =   0.0092593
        k(   42) = (   0.2500000   0.0481125  -0.3742276), wk =   0.0092593
        k(   43) = (   0.2500000   0.4330127  -0.1020621), wk =   0.0092593
        k(   44) = (   0.2500000   0.4330127   0.3061862), wk =   0.0092593
        k(   45) = (   0.2500000   0.4330127   0.7144345), wk =   0.0092593
        k(   46) = (   0.2500000   0.4330127  -1.3268069), wk =   0.0092593
        k(   47) = (   0.2500000   0.4330127  -0.9185587), wk =   0.0092593
        k(   48) = (   0.2500000   0.4330127  -0.5103104), wk =   0.0092593
        k(   49) = (   0.2500000   0.8179129  -0.2381448), wk =   0.0092593
        k(   50) = (   0.2500000   0.8179129   0.1701035), wk =   0.0092593
        k(   51) = (   0.2500000   0.8179129   0.5783517), wk =   0.0092593
        k(   52) = (   0.2500000   0.8179129  -1.4628897), wk =   0.0092593
        k(   53) = (   0.2500000   0.8179129  -1.0546414), wk =   0.0092593
        k(   54) = (   0.2500000   0.8179129  -0.6463931), wk =   0.0092593
        k(   55) = (   0.2500000  -1.1065880   0.4422690), wk =   0.0092593
        k(   56) = (   0.2500000  -1.1065880   0.8505173), wk =   0.0092593
        k(   57) = (   0.2500000  -1.1065880   1.2587656), wk =   0.0092593
        k(   58) = (   0.2500000  -1.1065880  -0.7824759), wk =   0.0092593
        k(   59) = (   0.2500000  -1.1065880  -0.3742276), wk =   0.0092593
        k(   60) = (   0.2500000  -1.1065880   0.0340207), wk =   0.0092593
        k(   61) = (   0.2500000  -0.7216878   0.3061862), wk =   0.0092593
        k(   62) = (   0.2500000  -0.7216878   0.7144345), wk =   0.0092593
        k(   63) = (   0.2500000  -0.7216878   1.1226828), wk =   0.0092593
        k(   64) = (   0.2500000  -0.7216878  -0.9185587), wk =   0.0092593
        k(   65) = (   0.2500000  -0.7216878  -0.5103104), wk =   0.0092593
        k(   66) = (   0.2500000  -0.7216878  -0.1020621), wk =   0.0092593
        k(   67) = (   0.2500000  -0.3367877   0.1701035), wk =   0.0092593
        k(   68) = (   0.2500000  -0.3367877   0.5783517), wk =   0.0092593
        k(   69) = (   0.2500000  -0.3367877   0.9866000), wk =   0.0092593
        k(   70) = (   0.2500000  -0.3367877  -1.0546414), wk =   0.0092593
        k(   71) = (   0.2500000  -0.3367877  -0.6463931), wk =   0.0092593
        k(   72) = (   0.2500000  -0.3367877  -0.2381448), wk =   0.0092593
        k(   73) = (   0.4166667  -0.0481125  -0.0340207), wk =   0.0092593
        k(   74) = (   0.4166667  -0.0481125   0.3742276), wk =   0.0092593
        k(   75) = (   0.4166667  -0.0481125   0.7824759), wk =   0.0092593
        k(   76) = (   0.4166667  -0.0481125  -1.2587656), wk =   0.0092593
        k(   77) = (   0.4166667  -0.0481125  -0.8505173), wk =   0.0092593
        k(   78) = (   0.4166667  -0.0481125  -0.4422690), wk =   0.0092593
        k(   79) = (   0.4166667   0.3367877  -0.1701035), wk =   0.0092593
        k(   80) = (   0.4166667   0.3367877   0.2381448), wk =   0.0092593
        k(   81) = (   0.4166667   0.3367877   0.6463931), wk =   0.0092593
        k(   82) = (   0.4166667   0.3367877  -1.3948483), wk =   0.0092593
        k(   83) = (   0.4166667   0.3367877  -0.9866000), wk =   0.0092593
        k(   84) = (   0.4166667   0.3367877  -0.5783517), wk =   0.0092593
        k(   85) = (   0.4166667   0.7216878  -0.3061862), wk =   0.0092593
        k(   86) = (   0.4166667   0.7216878   0.1020621), wk =   0.0092593
        k(   87) = (   0.4166667   0.7216878   0.5103104), wk =   0.0092593
        k(   88) = (   0.4166667   0.7216878  -1.5309311), wk =   0.0092593
        k(   89) = (   0.4166667   0.7216878  -1.1226828), wk =   0.0092593
        k(   90) = (   0.4166667   0.7216878  -0.7144345), wk =   0.0092593
        k(   91) = (   0.4166667  -1.2028131   0.3742276), wk =   0.0092593
        k(   92) = (   0.4166667  -1.2028131   0.7824759), wk =   0.0092593
        k(   93) = (   0.4166667  -1.2028131   1.1907242), wk =   0.0092593
        k(   94) = (   0.4166667  -1.2028131  -0.8505173), wk =   0.0092593
        k(   95) = (   0.4166667  -1.2028131  -0.4422690), wk =   0.0092593
        k(   96) = (   0.4166667  -1.2028131  -0.0340207), wk =   0.0092593
        k(   97) = (   0.4166667  -0.8179129   0.2381448), wk =   0.0092593
        k(   98) = (   0.4166667  -0.8179129   0.6463931), wk =   0.0092593
        k(   99) = (   0.4166667  -0.8179129   1.0546414), wk =   0.0092593
        k(  100) = (   0.4166667  -0.8179129  -0.9866000), wk =   0.0092593
        k(  101) = (   0.4166667  -0.8179129  -0.5783517), wk =   0.0092593
        k(  102) = (   0.4166667  -0.8179129  -0.1701035), wk =   0.0092593
        k(  103) = (   0.4166667  -0.4330127   0.1020621), wk =   0.0092593
        k(  104) = (   0.4166667  -0.4330127   0.5103104), wk =   0.0092593
        k(  105) = (   0.4166667  -0.4330127   0.9185587), wk =   0.0092593
        k(  106) = (   0.4166667  -0.4330127  -1.1226828), wk =   0.0092593
        k(  107) = (   0.4166667  -0.4330127  -0.7144345), wk =   0.0092593
        k(  108) = (   0.4166667  -0.4330127  -0.3061862), wk =   0.0092593

                       cryst. coord.
        k(    1) = (   0.0833333   0.0833333   0.0833333), wk =   0.0092593
        k(    2) = (   0.0833333   0.0833333   0.2500000), wk =   0.0092593
        k(    3) = (   0.0833333   0.0833333   0.4166667), wk =   0.0092593
        k(    4) = (   0.0833333   0.0833333  -0.4166667), wk =   0.0092593
        k(    5) = (   0.0833333   0.0833333  -0.2500000), wk =   0.0092593
        k(    6) = (   0.0833333   0.0833333  -0.0833333), wk =   0.0092593
        k(    7) = (   0.0833333   0.2500000   0.0833333), wk =   0.0092593
        k(    8) = (   0.0833333   0.2500000   0.2500000), wk =   0.0092593
        k(    9) = (   0.0833333   0.2500000   0.4166667), wk =   0.0092593
        k(   10) = (   0.0833333   0.2500000  -0.4166667), wk =   0.0092593
        k(   11) = (   0.0833333   0.2500000  -0.2500000), wk =   0.0092593
        k(   12) = (   0.0833333   0.2500000  -0.0833333), wk =   0.0092593
        k(   13) = (   0.0833333   0.4166667   0.0833333), wk =   0.0092593
        k(   14) = (   0.0833333   0.4166667   0.2500000), wk =   0.0092593
        k(   15) = (   0.0833333   0.4166667   0.4166667), wk =   0.0092593
        k(   16) = (   0.0833333   0.4166667  -0.4166667), wk =   0.0092593
        k(   17) = (   0.0833333   0.4166667  -0.2500000), wk =   0.0092593
        k(   18) = (   0.0833333   0.4166667  -0.0833333), wk =   0.0092593
        k(   19) = (   0.0833333  -0.4166667   0.0833333), wk =   0.0092593
        k(   20) = (   0.0833333  -0.4166667   0.2500000), wk =   0.0092593
        k(   21) = (   0.0833333  -0.4166667   0.4166667), wk =   0.0092593
        k(   22) = (   0.0833333  -0.4166667  -0.4166667), wk =   0.0092593
        k(   23) = (   0.0833333  -0.4166667  -0.2500000), wk =   0.0092593
        k(   24) = (   0.0833333  -0.4166667  -0.0833333), wk =   0.0092593
        k(   25) = (   0.0833333  -0.2500000   0.0833333), wk =   0.0092593
        k(   26) = (   0.0833333  -0.2500000   0.2500000), wk =   0.0092593
        k(   27) = (   0.0833333  -0.2500000   0.4166667), wk =   0.0092593
        k(   28) = (   0.0833333  -0.2500000  -0.4166667), wk =   0.0092593
        k(   29) = (   0.0833333  -0.2500000  -0.2500000), wk =   0.0092593
        k(   30) = (   0.0833333  -0.2500000  -0.0833333), wk =   0.0092593
        k(   31) = (   0.0833333  -0.0833333   0.0833333), wk =   0.0092593
        k(   32) = (   0.0833333  -0.0833333   0.2500000), wk =   0.0092593
        k(   33) = (   0.0833333  -0.0833333   0.4166667), wk =   0.0092593
        k(   34) = (   0.0833333  -0.0833333  -0.4166667), wk =   0.0092593
        k(   35) = (   0.0833333  -0.0833333  -0.2500000), wk =   0.0092593
        k(   36) = (   0.0833333  -0.0833333  -0.0833333), wk =   0.0092593
        k(   37) = (   0.2500000   0.0833333   0.0833333), wk =   0.0092593
        k(   38) = (   0.2500000   0.0833333   0.2500000), wk =   0.0092593
        k(   39) = (   0.2500000   0.0833333   0.4166667), wk =   0.0092593
        k(   40) = (   0.2500000   0.0833333  -0.4166667), wk =   0.0092593
        k(   41) = (   0.2500000   0.0833333  -0.2500000), wk =   0.0092593
        k(   42) = (   0.2500000   0.0833333  -0.0833333), wk =   0.0092593
        k(   43) = (   0.2500000   0.2500000   0.0833333), wk =   0.0092593
        k(   44) = (   0.2500000   0.2500000   0.2500000), wk =   0.0092593
        k(   45) = (   0.2500000   0.2500000   0.4166667), wk =   0.0092593
        k(   46) = (   0.2500000   0.2500000  -0.4166667), wk =   0.0092593
        k(   47) = (   0.2500000   0.2500000  -0.2500000), wk =   0.0092593
        k(   48) = (   0.2500000   0.2500000  -0.0833333), wk =   0.0092593
        k(   49) = (   0.2500000   0.4166667   0.0833333), wk =   0.0092593
        k(   50) = (   0.2500000   0.4166667   0.2500000), wk =   0.0092593
        k(   51) = (   0.2500000   0.4166667   0.4166667), wk =   0.0092593
        k(   52) = (   0.2500000   0.4166667  -0.4166667), wk =   0.0092593
        k(   53) = (   0.2500000   0.4166667  -0.2500000), wk =   0.0092593
        k(   54) = (   0.2500000   0.4166667  -0.0833333), wk =   0.0092593
        k(   55) = (   0.2500000  -0.4166667   0.0833333), wk =   0.0092593
        k(   56) = (   0.2500000  -0.4166667   0.2500000), wk =   0.0092593
        k(   57) = (   0.2500000  -0.4166667   0.4166667), wk =   0.0092593
        k(   58) = (   0.2500000  -0.4166667  -0.4166667), wk =   0.0092593
        k(   59) = (   0.2500000  -0.4166667  -0.2500000), wk =   0.0092593
        k(   60) = (   0.2500000  -0.4166667  -0.0833333), wk =   0.0092593
        k(   61) = (   0.2500000  -0.2500000   0.0833333), wk =   0.0092593
        k(   62) = (   0.2500000  -0.2500000   0.2500000), wk =   0.0092593
        k(   63) = (   0.2500000  -0.2500000   0.4166667), wk =   0.0092593
        k(   64) = (   0.2500000  -0.2500000  -0.4166667), wk =   0.0092593
        k(   65) = (   0.2500000  -0.2500000  -0.2500000), wk =   0.0092593
        k(   66) = (   0.2500000  -0.2500000  -0.0833333), wk =   0.0092593
        k(   67) = (   0.2500000  -0.0833333   0.0833333), wk =   0.0092593
        k(   68) = (   0.2500000  -0.0833333   0.2500000), wk =   0.0092593
        k(   69) = (   0.2500000  -0.0833333   0.4166667), wk =   0.0092593
        k(   70) = (   0.2500000  -0.0833333  -0.4166667), wk =   0.0092593
        k(   71) = (   0.2500000  -0.0833333  -0.2500000), wk =   0.0092593
        k(   72) = (   0.2500000  -0.0833333  -0.0833333), wk =   0.0092593
        k(   73) = (   0.4166667   0.0833333   0.0833333), wk =   0.0092593
        k(   74) = (   0.4166667   0.0833333   0.2500000), wk =   0.0092593
        k(   75) = (   0.4166667   0.0833333   0.4166667), wk =   0.0092593
        k(   76) = (   0.4166667   0.0833333  -0.4166667), wk =   0.0092593
        k(   77) = (   0.4166667   0.0833333  -0.2500000), wk =   0.0092593
        k(   78) = (   0.4166667   0.0833333  -0.0833333), wk =   0.0092593
        k(   79) = (   0.4166667   0.2500000   0.0833333), wk =   0.0092593
        k(   80) = (   0.4166667   0.2500000   0.2500000), wk =   0.0092593
        k(   81) = (   0.4166667   0.2500000   0.4166667), wk =   0.0092593
        k(   82) = (   0.4166667   0.2500000  -0.4166667), wk =   0.0092593
        k(   83) = (   0.4166667   0.2500000  -0.2500000), wk =   0.0092593
        k(   84) = (   0.4166667   0.2500000  -0.0833333), wk =   0.0092593
        k(   85) = (   0.4166667   0.4166667   0.0833333), wk =   0.0092593
        k(   86) = (   0.4166667   0.4166667   0.2500000), wk =   0.0092593
        k(   87) = (   0.4166667   0.4166667   0.4166667), wk =   0.0092593
        k(   88) = (   0.4166667   0.4166667  -0.4166667), wk =   0.0092593
        k(   89) = (   0.4166667   0.4166667  -0.2500000), wk =   0.0092593
        k(   90) = (   0.4166667   0.4166667  -0.0833333), wk =   0.0092593
        k(   91) = (   0.4166667  -0.4166667   0.0833333), wk =   0.0092593
        k(   92) = (   0.4166667  -0.4166667   0.2500000), wk =   0.0092593
        k(   93) = (   0.4166667  -0.4166667   0.4166667), wk =   0.0092593
        k(   94) = (   0.4166667  -0.4166667  -0.4166667), wk =   0.0092593
        k(   95) = (   0.4166667  -0.4166667  -0.2500000), wk =   0.0092593
        k(   96) = (   0.4166667  -0.4166667  -0.0833333), wk =   0.0092593
        k(   97) = (   0.4166667  -0.2500000   0.0833333), wk =   0.0092593
        k(   98) = (   0.4166667  -0.2500000   0.2500000), wk =   0.0092593
        k(   99) = (   0.4166667  -0.2500000   0.4166667), wk =   0.0092593
        k(  100) = (   0.4166667  -0.2500000  -0.4166667), wk =   0.0092593
        k(  101) = (   0.4166667  -0.2500000  -0.2500000), wk =   0.0092593
        k(  102) = (   0.4166667  -0.2500000  -0.0833333), wk =   0.0092593
        k(  103) = (   0.4166667  -0.0833333   0.0833333), wk =   0.0092593
        k(  104) = (   0.4166667  -0.0833333   0.2500000), wk =   0.0092593
        k(  105) = (   0.4166667  -0.0833333   0.4166667), wk =   0.0092593
        k(  106) = (   0.4166667  -0.0833333  -0.4166667), wk =   0.0092593
        k(  107) = (   0.4166667  -0.0833333  -0.2500000), wk =   0.0092593
        k(  108) = (   0.4166667  -0.0833333  -0.0833333), wk =   0.0092593

     Dense  grid:     4933 G-vectors     FFT dimensions: (  40,  20,  20)

     Dynamical RAM for                 wfc:       0.17 MB

     Dynamical RAM for     wfc (w. buffer):       9.38 MB

     Dynamical RAM for             U proj.:       0.09 MB

     Dynamical RAM for  U proj. (w. buff.):       5.21 MB

     Dynamical RAM for           str. fact:       0.15 MB

     Dynamical RAM for           local pot:       0.00 MB

     Dynamical RAM for          nlocal pot:       0.34 MB

     Dynamical RAM for                qrad:       2.03 MB

     Dynamical RAM for          rho,v,vnew:       1.18 MB

     Dynamical RAM for               rhoin:       0.39 MB

     Dynamical RAM for            rho*nmix:       2.41 MB

     Dynamical RAM for           G-vectors:       0.32 MB

     Dynamical RAM for          h,s,v(r/c):       0.06 MB

     Dynamical RAM for          <psi|beta>:       0.01 MB

     Dynamical RAM for                 psi:       0.34 MB

     Dynamical RAM for                hpsi:       0.34 MB

     Dynamical RAM for                spsi:       0.34 MB

     Dynamical RAM for      wfcinit/wfcrot:       0.51 MB

     Dynamical RAM for           addusdens:       3.65 MB

     Estimated static dynamical RAM per process >      19.97 MB

     Estimated max dynamical RAM per process >      26.03 MB

     Estimated total dynamical RAM >      96.90 MB

     Check: negative core charge=   -0.000112
     Generating pointlists ...
     new r_m :   0.2063 (alat units)  1.9324 (a.u.) for type    1
     new r_m :   0.2063 (alat units)  1.9324 (a.u.) for type    2

     Initial potential from superposition of free atoms

     starting charge      32.0000, renormalised to      36.0000

     HUBBARD ENERGY =    0.3528  (Ry)

     STARTING HUBBARD OCCUPATIONS:

     =================== HUBBARD OCCUPATIONS ===================
     ------------------------ ATOM    1 ------------------------
     Tr[ns(  1)] (up, down, total) =   5.00000  3.00000  8.00000
     Atomic magnetic moment for atom   1 =   2.00000
     SPIN  1
     eigenvalues:
       1.000  1.000  1.000  1.000  1.000
     eigenvectors (columns):
       1.000  0.000  0.000  0.000  0.000
       0.000  1.000  0.000  0.000  0.000
       0.000  0.000  1.000  0.000  0.000
       0.000  0.000  0.000  1.000  0.000
       0.000  0.000  0.000  0.000  1.000
     occupation matrix ns (before diag.):
       1.000  0.000  0.000  0.000  0.000
       0.000  1.000  0.000  0.000  0.000
       0.000  0.000  1.000  0.000  0.000
       0.000  0.000  0.000  1.000  0.000
       0.000  0.000  0.000  0.000  1.000
     SPIN  2
     eigenvalues:
       0.600  0.600  0.600  0.600  0.600
     eigenvectors (columns):
       1.000  0.000  0.000  0.000  0.000
       0.000  1.000  0.000  0.000  0.000
       0.000  0.000  1.000  0.000  0.000
       0.000  0.000  0.000  1.000  0.000
       0.000  0.000  0.000  0.000  1.000
     occupation matrix ns (before diag.):
       0.600  0.000  0.000  0.000  0.000
       0.000  0.600  0.000  0.000  0.000
       0.000  0.000  0.600  0.000  0.000
       0.000  0.000  0.000  0.600  0.000
       0.000  0.000  0.000  0.000  0.600
     ------------------------ ATOM    2 ------------------------
     Tr[ns(  2)] (up, down, total) =   3.00000  5.00000  8.00000
     Atomic magnetic moment for atom   2 =  -2.00000
     SPIN  1
     eigenvalues:
       0.600  0.600  0.600  0.600  0.600
     eigenvectors (columns):
       1.000  0.000  0.000  0.000  0.000
       0.000  1.000  0.000  0.000  0.000
       0.000  0.000  1.000  0.000  0.000
       0.000  0.000  0.000  1.000  0.000
       0.000  0.000  0.000  0.000  1.000
     occupation matrix ns (before diag.):
       0.600  0.000  0.000  0.000  0.000
       0.000  0.600  0.000  0.000  0.000
       0.000  0.000  0.600  0.000  0.000
       0.000  0.000  0.000  0.600  0.000
       0.000  0.000  0.000  0.000  0.600
     SPIN  2
     eigenvalues:
       1.000  1.000  1.000  1.000  1.000
     eigenvectors (columns):
       1.000  0.000  0.000  0.000  0.000
       0.000  1.000  0.000  0.000  0.000
       0.000  0.000  1.000  0.000  0.000
       0.000  0.000  0.000  1.000  0.000
       0.000  0.000  0.000  0.000  1.000
     occupation matrix ns (before diag.):
       1.000  0.000  0.000  0.000  0.000
       0.000  1.000  0.000  0.000  0.000
       0.000  0.000  1.000  0.000  0.000
       0.000  0.000  0.000  1.000  0.000
       0.000  0.000  0.000  0.000  1.000

     Number of occupied Hubbard levels =   16.0000

     Atomic wfc used for Hubbard projectors are orthogonalized

     Starting wfcs are   26 randomized atomic wfcs

     total cpu time spent up to now is        0.6 secs

     per-process dynamical memory:    56.3 Mb

     Self-consistent Calculation

     iteration #  1     ecut=    40.00 Ry     beta= 0.70
     Davidson diagonalization with overlap

---- Real-time Memory Report at c_bands before calling an iterative solver
           113 MiB given to the printing process from OS
            55 MiB allocation reported by mallinfo(arena+hblkhd)
         31858 MiB available memory on the node where the printing process lives
------------------
     ethr =  1.00E-02,  avg # of iterations =  3.1

     =================== HUBBARD OCCUPATIONS ===================
     ------------------------ ATOM    1 ------------------------
     Tr[ns(  1)] (up, down, total) =   3.03310  1.56900  4.60210
     Atomic magnetic moment for atom   1 =   1.46411
     SPIN  1
     eigenvalues:
       0.560  0.560  0.628  0.642  0.644
     eigenvectors (columns):
      -0.000  0.746  0.193  0.000 -0.638
       0.016  0.570 -0.313  0.500  0.572
       0.028 -0.329  0.181  0.866 -0.330
       0.866 -0.051 -0.456 -0.028 -0.198
       0.500  0.089  0.790 -0.016  0.343
     occupation matrix ns (before diag.):
       0.597 -0.035  0.020  0.005 -0.008
      -0.035  0.614  0.016 -0.001 -0.001
       0.020  0.016  0.633 -0.002 -0.001
       0.005 -0.001 -0.002  0.577 -0.030
      -0.008 -0.001 -0.001 -0.030  0.612
     SPIN  2
     eigenvalues:
       0.282  0.282  0.283  0.358  0.363
     eigenvectors (columns):
       0.877 -0.000  0.019  0.000 -0.481
       0.303  0.037 -0.616  0.499  0.528
      -0.175  0.064  0.356  0.864 -0.305
      -0.165 -0.864 -0.351  0.064 -0.315
       0.286 -0.499  0.608  0.037  0.546
     occupation matrix ns (before diag.):
       0.301 -0.021  0.012  0.012 -0.021
      -0.021  0.324  0.019 -0.011  0.024
       0.012  0.019  0.346  0.012 -0.011
       0.012 -0.011  0.012  0.291 -0.014
      -0.021  0.024 -0.011 -0.014  0.307
     ------------------------ ATOM    2 ------------------------
     Tr[ns(  2)] (up, down, total) =   1.56582  3.02930  4.59511
     Atomic magnetic moment for atom   2 =  -1.46348
     SPIN  1
     eigenvalues:
       0.281  0.281  0.283  0.359  0.362
     eigenvectors (columns):
       0.882  0.000 -0.047  0.000 -0.468
       0.248  0.039 -0.637  0.498  0.532
      -0.143  0.068  0.368  0.863 -0.307
      -0.186 -0.863 -0.338  0.068 -0.318
       0.323 -0.498  0.586  0.039  0.550
     occupation matrix ns (before diag.):
       0.299 -0.020  0.012  0.012 -0.021
      -0.020  0.324  0.020 -0.011  0.024
       0.012  0.020  0.347  0.012 -0.011
       0.012 -0.011  0.012  0.290 -0.015
      -0.021  0.024 -0.011 -0.015  0.306
     SPIN  2
     eigenvalues:
       0.558  0.560  0.628  0.641  0.642
     eigenvectors (columns):
      -0.000  0.759  0.140  0.636  0.000
       0.018  0.553 -0.301 -0.594 -0.500
       0.031 -0.320  0.174  0.343 -0.865
       0.865 -0.062 -0.463  0.177  0.031
       0.500  0.108  0.803 -0.307  0.018
     occupation matrix ns (before diag.):
       0.594 -0.034  0.019  0.005 -0.008
      -0.034  0.615  0.015 -0.000 -0.002
       0.019  0.015  0.633 -0.003 -0.000
       0.005 -0.000 -0.003  0.576 -0.030
      -0.008 -0.002 -0.000 -0.030  0.611

     Number of occupied Hubbard levels =    9.1972

     HUBBARD ENERGY =    0.6629  (Ry)

     total cpu time spent up to now is        1.3 secs

     total energy              =    -653.84823064 Ry
     estimated scf accuracy    <      57.93219542 Ry

     total magnetization       =     0.00 Bohr mag/cell
     absolute magnetization    =     3.08 Bohr mag/cell

     iteration #  2     ecut=    40.00 Ry     beta= 0.70
     Davidson diagonalization with overlap

---- Real-time Memory Report at c_bands before calling an iterative solver
           122 MiB given to the printing process from OS
            61 MiB allocation reported by mallinfo(arena+hblkhd)
         31832 MiB available memory on the node where the printing process lives
------------------
     ethr =  1.00E-02,  avg # of iterations =  4.8

     =================== HUBBARD OCCUPATIONS ===================
     ------------------------ ATOM    1 ------------------------
     Tr[ns(  1)] (up, down, total) =   4.66120  4.65994  9.32115
     Atomic magnetic moment for atom   1 =   0.00126
     SPIN  1
     eigenvalues:
       0.930  0.930  0.933  0.933  0.934
     eigenvectors (columns):
       0.066  0.000 -0.899  0.000 -0.433
       0.715  0.389 -0.168 -0.314  0.458
      -0.413  0.675  0.097 -0.543 -0.265
      -0.280  0.543 -0.196  0.675  0.365
       0.485  0.314  0.340  0.389 -0.632
     occupation matrix ns (before diag.):
       0.934 -0.000  0.000  0.000 -0.000
      -0.000  0.931  0.000  0.000 -0.002
       0.000  0.000  0.931 -0.002  0.000
       0.000  0.000 -0.002  0.932 -0.000
      -0.000 -0.002  0.000 -0.000  0.933
     SPIN  2
     eigenvalues:
       0.930  0.930  0.933  0.933  0.933
     eigenvectors (columns):
       0.000 -0.071 -0.356  0.932  0.000
      -0.387 -0.718  0.468  0.124 -0.317
      -0.670  0.415 -0.270 -0.072 -0.548
      -0.548  0.277  0.381  0.167  0.670
      -0.317 -0.480 -0.660 -0.289  0.387
     occupation matrix ns (before diag.):
       0.933 -0.000  0.000  0.000 -0.000
      -0.000  0.931  0.000 -0.000 -0.001
       0.000  0.000  0.931 -0.002 -0.000
       0.000 -0.000 -0.002  0.932 -0.000
      -0.000 -0.001 -0.000 -0.000  0.932
     ------------------------ ATOM    2 ------------------------
     Tr[ns(  2)] (up, down, total) =   4.65098  4.66081  9.31179
     Atomic magnetic moment for atom   2 =  -0.00983
     SPIN  1
     eigenvalues:
       0.926  0.929  0.931  0.932  0.933
     eigenvectors (columns):
       0.611  0.000 -0.719  0.000  0.331
      -0.432  0.471 -0.584 -0.167 -0.472
       0.249  0.816  0.337 -0.289  0.272
       0.308  0.289  0.084  0.816 -0.385
      -0.533  0.167 -0.145  0.471  0.667
     occupation matrix ns (before diag.):
       0.929  0.001 -0.001 -0.001  0.002
       0.001  0.930 -0.000  0.001 -0.002
      -0.001 -0.000  0.930 -0.001  0.001
      -0.001  0.001 -0.001  0.931  0.001
       0.002 -0.002  0.001  0.001  0.931
     SPIN  2
     eigenvalues:
       0.930  0.930  0.933  0.933  0.934
     eigenvectors (columns):
      -0.000  0.056 -0.000  0.918 -0.393
       0.390  0.712 -0.313  0.157  0.467
       0.675 -0.411 -0.542 -0.090 -0.269
       0.542 -0.283  0.675  0.177  0.373
       0.313  0.490  0.390 -0.306 -0.645
     occupation matrix ns (before diag.):
       0.933 -0.000  0.000  0.000 -0.000
      -0.000  0.931  0.000  0.000 -0.002
       0.000  0.000  0.931 -0.002  0.000
       0.000  0.000 -0.002  0.932 -0.000
      -0.000 -0.002  0.000 -0.000  0.932

     Number of occupied Hubbard levels =   18.6329

     HUBBARD ENERGY =    0.6657  (Ry)

     total cpu time spent up to now is        2.1 secs

     total energy              =    -679.75999209 Ry
     estimated scf accuracy    <      73.66840867 Ry

     total magnetization       =    -0.00 Bohr mag/cell
     absolute magnetization    =     0.03 Bohr mag/cell

     iteration #  3     ecut=    40.00 Ry     beta= 0.70
     Davidson diagonalization with overlap

---- Real-time Memory Report at c_bands before calling an iterative solver
           123 MiB given to the printing process from OS
            61 MiB allocation reported by mallinfo(arena+hblkhd)
         31831 MiB available memory on the node where the printing process lives
------------------
     ethr =  1.00E-02,  avg # of iterations =  3.1

     =================== HUBBARD OCCUPATIONS ===================
     ------------------------ ATOM    1 ------------------------
     Tr[ns(  1)] (up, down, total) =   4.91378  4.86004  9.77383
     Atomic magnetic moment for atom   1 =   0.05374
     SPIN  1
     eigenvalues:
       0.981  0.981  0.981  0.986  0.986
     eigenvectors (columns):
       0.958  0.000  0.287  0.008  0.000
       0.155 -0.281 -0.498 -0.691 -0.413
      -0.090 -0.487  0.287  0.399 -0.716
       0.112  0.716 -0.383  0.301 -0.487
      -0.194  0.413  0.664 -0.521 -0.281
     occupation matrix ns (before diag.):
       0.981 -0.000  0.000 -0.000  0.000
      -0.000  0.984  0.000  0.000  0.002
       0.000  0.000  0.984  0.002  0.000
      -0.000  0.000  0.002  0.982 -0.000
       0.000  0.002  0.000 -0.000  0.983
     SPIN  2
     eigenvalues:
       0.965  0.968  0.972  0.977  0.978
     eigenvectors (columns):
       0.803  0.000  0.302 -0.514 -0.000
       0.509 -0.089 -0.472  0.517  0.492
      -0.294 -0.155  0.273 -0.299  0.852
      -0.050  0.852 -0.391 -0.308  0.155
       0.087  0.492  0.677  0.533  0.089
     occupation matrix ns (before diag.):
       0.969 -0.004  0.002  0.001 -0.002
      -0.004  0.973  0.003  0.000  0.001
       0.002  0.003  0.976  0.002  0.000
       0.001  0.000  0.002  0.970 -0.002
      -0.002  0.001  0.000 -0.002  0.973
     ------------------------ ATOM    2 ------------------------
     Tr[ns(  2)] (up, down, total) =   4.86127  4.91560  9.77687
     Atomic magnetic moment for atom   2 =  -0.05433
     SPIN  1
     eigenvalues:
       0.966  0.970  0.973  0.975  0.978
     eigenvectors (columns):
       0.925  0.000  0.379 -0.017 -0.000
       0.215 -0.193 -0.552 -0.632  0.461
      -0.124 -0.335  0.319  0.365  0.799
       0.144  0.799 -0.335  0.342  0.335
      -0.249  0.461  0.581 -0.592  0.193
     occupation matrix ns (before diag.):
       0.967 -0.001  0.001 -0.001  0.002
      -0.001  0.974  0.001  0.001  0.002
       0.001  0.001  0.976  0.002  0.001
      -0.001  0.001  0.002  0.972 -0.001
       0.002  0.002  0.001 -0.001  0.973
     SPIN  2
     eigenvalues:
       0.981  0.981  0.981  0.986  0.986
     eigenvectors (columns):
       0.958 -0.000  0.288 -0.000  0.010
       0.136  0.286 -0.477  0.410  0.710
      -0.078  0.496  0.276  0.710 -0.410
       0.121 -0.710 -0.392  0.496 -0.287
      -0.209 -0.410  0.678  0.286  0.496
     occupation matrix ns (before diag.):
       0.981 -0.000  0.000 -0.000  0.000
      -0.000  0.985 -0.000  0.000  0.002
       0.000 -0.000  0.984  0.002  0.000
      -0.000  0.000  0.002  0.983 -0.000
       0.000  0.002  0.000 -0.000  0.983

     Number of occupied Hubbard levels =   19.5507

     HUBBARD ENERGY =    0.5690  (Ry)

     total cpu time spent up to now is        2.7 secs

     total energy              =    -684.88124356 Ry
     estimated scf accuracy    <       6.77980879 Ry

     total magnetization       =     0.00 Bohr mag/cell
     absolute magnetization    =     0.19 Bohr mag/cell

     iteration #  4     ecut=    40.00 Ry     beta= 0.70
     Davidson diagonalization with overlap

---- Real-time Memory Report at c_bands before calling an iterative solver
           124 MiB given to the printing process from OS
            62 MiB allocation reported by mallinfo(arena+hblkhd)
         31830 MiB available memory on the node where the printing process lives
------------------
     ethr =  1.00E-02,  avg # of iterations =  3.5

     =================== HUBBARD OCCUPATIONS ===================
     ------------------------ ATOM    1 ------------------------
     Tr[ns(  1)] (up, down, total) =   4.69593  4.14912  8.84505
     Atomic magnetic moment for atom   1 =   0.54682
     SPIN  1
     eigenvalues:
       0.921  0.924  0.940  0.955  0.955
     eigenvectors (columns):
       0.000 -0.809 -0.335 -0.484  0.000
       0.027 -0.507  0.460  0.530 -0.499
       0.046  0.293 -0.265 -0.306 -0.865
      -0.865  0.026  0.389 -0.313 -0.046
      -0.499 -0.045 -0.674  0.542 -0.027
     occupation matrix ns (before diag.):
       0.933 -0.010  0.006  0.003 -0.004
      -0.010  0.944  0.007 -0.001  0.004
       0.006  0.007  0.952  0.003 -0.001
       0.003 -0.001  0.003  0.928 -0.010
      -0.004  0.004 -0.001 -0.010  0.940
     SPIN  2
     eigenvalues:
       0.761  0.761  0.872  0.873  0.882
     eigenvectors (columns):
       0.808  0.000 -0.265  0.000  0.527
       0.508 -0.088  0.232 -0.492 -0.662
      -0.293 -0.153 -0.134 -0.852  0.382
      -0.031  0.852 -0.463 -0.153 -0.186
       0.053  0.492  0.802 -0.088  0.322
     occupation matrix ns (before diag.):
       0.802 -0.049  0.028  0.002 -0.003
      -0.049  0.847  0.013  0.011 -0.000
       0.028  0.013  0.862  0.013  0.011
       0.002  0.011  0.013  0.792 -0.047
      -0.003 -0.000  0.011 -0.047  0.846
     ------------------------ ATOM    2 ------------------------
     Tr[ns(  2)] (up, down, total) =   4.13257  4.68854  8.82111
     Atomic magnetic moment for atom   2 =  -0.55597
     SPIN  1
     eigenvalues:
       0.756  0.757  0.867  0.871  0.881
     eigenvectors (columns):
      -0.000  0.835 -0.335  0.000  0.436
      -0.096  0.476  0.410 -0.491 -0.596
      -0.166 -0.275 -0.237 -0.850  0.344
       0.850 -0.012 -0.407 -0.166 -0.290
       0.491  0.021  0.705 -0.096  0.502
     occupation matrix ns (before diag.):
       0.793 -0.047  0.027 -0.001  0.001
      -0.047  0.847  0.011  0.013 -0.000
       0.027  0.011  0.860  0.014  0.013
      -0.001  0.013  0.014  0.788 -0.048
       0.001 -0.000  0.013 -0.048  0.844
     SPIN  2
     eigenvalues:
       0.920  0.923  0.938  0.954  0.954
     eigenvectors (columns):
       0.000 -0.802 -0.334 -0.495  0.000
       0.023 -0.516  0.437  0.541 -0.499
       0.039  0.298 -0.252 -0.312 -0.865
      -0.865  0.021  0.398 -0.302 -0.039
      -0.499 -0.036 -0.689  0.523 -0.023
     occupation matrix ns (before diag.):
       0.932 -0.011  0.006  0.003 -0.004
      -0.011  0.943  0.007 -0.002  0.004
       0.006  0.007  0.950  0.003 -0.002
       0.003 -0.002  0.003  0.926 -0.011
      -0.004  0.004 -0.002 -0.011  0.938

     Number of occupied Hubbard levels =   17.6662

     HUBBARD ENERGY =    0.4231  (Ry)

     total cpu time spent up to now is        3.3 secs

     total energy              =    -685.79699875 Ry
     estimated scf accuracy    <       0.29826484 Ry

     total magnetization       =    -0.00 Bohr mag/cell
     absolute magnetization    =     1.15 Bohr mag/cell

     iteration #  5     ecut=    40.00 Ry     beta= 0.70
     Davidson diagonalization with overlap

---- Real-time Memory Report at c_bands before calling an iterative solver
           125 MiB given to the printing process from OS
            62 MiB allocation reported by mallinfo(arena+hblkhd)
         31829 MiB available memory on the node where the printing process lives
------------------
     ethr =  8.29E-04,  avg # of iterations =  2.4

     =================== HUBBARD OCCUPATIONS ===================
     ------------------------ ATOM    1 ------------------------
     Tr[ns(  1)] (up, down, total) =   4.67291  4.05489  8.72780
     Atomic magnetic moment for atom   1 =   0.61801
     SPIN  1
     eigenvalues:
       0.919  0.920  0.934  0.949  0.950
     eigenvectors (columns):
      -0.000  0.829  0.314  0.000 -0.462
      -0.036  0.481 -0.478  0.499  0.538
      -0.062 -0.278  0.276  0.864 -0.311
       0.864 -0.030 -0.386  0.062 -0.316
       0.499  0.052  0.669  0.036  0.548
     occupation matrix ns (before diag.):
       0.928 -0.010  0.006  0.003 -0.005
      -0.010  0.939  0.006 -0.002  0.005
       0.006  0.006  0.946  0.003 -0.002
       0.003 -0.002  0.003  0.925 -0.009
      -0.005  0.005 -0.002 -0.009  0.935
     SPIN  2
     eigenvalues:
       0.731  0.732  0.857  0.861  0.875
     eigenvectors (columns):
       0.831 -0.000  0.000 -0.360  0.424
       0.480  0.111  0.487  0.424 -0.583
      -0.277  0.193  0.844 -0.245  0.337
      -0.017 -0.844  0.193 -0.397 -0.303
       0.030 -0.487  0.111  0.688  0.525
     occupation matrix ns (before diag.):
       0.773 -0.055  0.032  0.000 -0.000
      -0.055  0.833  0.010  0.015  0.001
       0.032  0.010  0.845  0.018  0.015
       0.000  0.015  0.018  0.770 -0.055
      -0.000  0.001  0.015 -0.055  0.834
     ------------------------ ATOM    2 ------------------------
     Tr[ns(  2)] (up, down, total) =   4.11342  4.70848  8.82190
     Atomic magnetic moment for atom   2 =  -0.59507
     SPIN  1
     eigenvalues:
       0.742  0.747  0.866  0.869  0.890
     eigenvectors (columns):
       0.835  0.000 -0.384 -0.000 -0.394
       0.475 -0.106  0.468  0.489  0.552
      -0.274 -0.183 -0.270  0.847 -0.319
      -0.016  0.847 -0.374  0.183  0.331
       0.028  0.489  0.648  0.106 -0.574
     occupation matrix ns (before diag.):
       0.783 -0.055  0.031 -0.001  0.002
      -0.055  0.845  0.011  0.016 -0.003
       0.031  0.011  0.857  0.016  0.016
      -0.001  0.016  0.016  0.783 -0.054
       0.002 -0.003  0.016 -0.054  0.845
     SPIN  2
     eigenvalues:
       0.926  0.928  0.942  0.956  0.956
     eigenvectors (columns):
      -0.000  0.813  0.335  0.000 -0.475
      -0.025  0.503 -0.444  0.499  0.547
      -0.043 -0.290  0.256  0.865 -0.316
       0.865 -0.016 -0.395  0.043 -0.306
       0.499  0.027  0.684  0.025  0.530
     occupation matrix ns (before diag.):
       0.936 -0.009  0.005  0.002 -0.004
      -0.009  0.946  0.006 -0.002  0.004
       0.005  0.006  0.953  0.002 -0.002
       0.002 -0.002  0.002  0.931 -0.009
      -0.004  0.004 -0.002 -0.009  0.942

     Number of occupied Hubbard levels =   17.5497

     HUBBARD ENERGY =    0.3693  (Ry)

     total cpu time spent up to now is        3.9 secs

     total energy              =    -685.76546553 Ry
     estimated scf accuracy    <       0.26751168 Ry

     total magnetization       =     0.00 Bohr mag/cell
     absolute magnetization    =     1.26 Bohr mag/cell

     iteration #  6     ecut=    40.00 Ry     beta= 0.70
     Davidson diagonalization with overlap

---- Real-time Memory Report at c_bands before calling an iterative solver
           126 MiB given to the printing process from OS
            62 MiB allocation reported by mallinfo(arena+hblkhd)
         31829 MiB available memory on the node where the printing process lives
------------------
     ethr =  7.43E-04,  avg # of iterations =  3.1

     =================== HUBBARD OCCUPATIONS ===================
     ------------------------ ATOM    1 ------------------------
     Tr[ns(  1)] (up, down, total) =   4.73091  4.07066  8.80157
     Atomic magnetic moment for atom   1 =   0.66025
     SPIN  1
     eigenvalues:
       0.937  0.937  0.942  0.957  0.958
     eigenvectors (columns):
      -0.000  0.862  0.369  0.348  0.000
      -0.106  0.433 -0.434 -0.612 -0.489
      -0.184 -0.250  0.251  0.353 -0.846
       0.846  0.043 -0.391  0.308 -0.184
       0.489 -0.075  0.678 -0.534 -0.106
     occupation matrix ns (before diag.):
       0.940 -0.005  0.003  0.002 -0.003
      -0.005  0.950  0.004 -0.001  0.006
       0.003  0.004  0.955  0.005 -0.001
       0.002 -0.001  0.005  0.940 -0.004
      -0.003  0.006 -0.001 -0.004  0.945
     SPIN  2
     eigenvalues:
       0.726  0.730  0.862  0.864  0.887
     eigenvectors (columns):
      -0.835 -0.000  0.000 -0.396 -0.382
      -0.476  0.118  0.486  0.485  0.537
       0.275  0.205  0.841 -0.280 -0.310
       0.016 -0.841  0.205 -0.364  0.342
      -0.028 -0.486  0.118  0.630 -0.593
     occupation matrix ns (before diag.):
       0.772 -0.060  0.034 -0.001  0.002
      -0.060  0.837  0.010  0.018 -0.002
       0.034  0.010  0.849  0.020  0.018
      -0.001  0.018  0.020  0.772 -0.060
       0.002 -0.002  0.018 -0.060  0.841
     ------------------------ ATOM    2 ------------------------
     Tr[ns(  2)] (up, down, total) =   3.84192  4.60978  8.45170
     Atomic magnetic moment for atom   2 =  -0.76785
     SPIN  1
     eigenvalues:
       0.650  0.657  0.830  0.832  0.872
     eigenvectors (columns):
       0.885  0.000 -0.335 -0.000 -0.324
       0.401 -0.160  0.610  0.474  0.466
      -0.232 -0.278 -0.352  0.820 -0.269
       0.024  0.820 -0.313  0.278  0.389
      -0.041  0.474  0.542  0.160 -0.674
     occupation matrix ns (before diag.):
       0.693 -0.070  0.041 -0.009  0.016
      -0.070  0.806  0.005  0.029  0.003
       0.041  0.005  0.812  0.036  0.029
      -0.009  0.029  0.036  0.720 -0.078
       0.016  0.003  0.029 -0.078  0.810
     SPIN  2
     eigenvalues:
       0.906  0.910  0.917  0.937  0.940
     eigenvectors (columns):
       0.000  0.858 -0.230 -0.000  0.458
       0.033  0.432  0.504 -0.499 -0.556
       0.058 -0.250 -0.291 -0.864  0.321
      -0.864 -0.059  0.390 -0.058  0.307
      -0.499  0.103 -0.675 -0.033 -0.532
     occupation matrix ns (before diag.):
       0.916 -0.009  0.005  0.004 -0.006
      -0.009  0.928  0.005 -0.003  0.007
       0.005  0.005  0.934  0.004 -0.003
       0.004 -0.003  0.004  0.911 -0.008
      -0.006  0.007 -0.003 -0.008  0.921

     Number of occupied Hubbard levels =   17.2533

     HUBBARD ENERGY =    0.3328  (Ry)

     total cpu time spent up to now is        4.4 secs

     total energy              =    -685.77189714 Ry
     estimated scf accuracy    <       0.12239813 Ry

     total magnetization       =     0.00 Bohr mag/cell
     absolute magnetization    =     1.50 Bohr mag/cell

     iteration #  7     ecut=    40.00 Ry     beta= 0.70
     Davidson diagonalization with overlap

---- Real-time Memory Report at c_bands before calling an iterative solver
           127 MiB given to the printing process from OS
            63 MiB allocation reported by mallinfo(arena+hblkhd)
         31828 MiB available memory on the node where the printing process lives
------------------
     ethr =  3.40E-04,  avg # of iterations =  3.4

     =================== HUBBARD OCCUPATIONS ===================
     ------------------------ ATOM    1 ------------------------
     Tr[ns(  1)] (up, down, total) =   4.65619  3.86681  8.52299
     Atomic magnetic moment for atom   1 =   0.78938
     SPIN  1
     eigenvalues:
       0.919  0.920  0.925  0.946  0.946
     eigenvectors (columns):
       0.863 -0.000  0.337  0.000 -0.378
       0.437  0.099 -0.460  0.490  0.589
      -0.253  0.171  0.265  0.849 -0.340
       0.014 -0.849 -0.389  0.171 -0.314
      -0.025 -0.490  0.674  0.099  0.544
     occupation matrix ns (before diag.):
       0.924 -0.007  0.004  0.003 -0.004
      -0.007  0.936  0.005 -0.002  0.008
       0.004  0.005  0.942  0.006 -0.002
       0.003 -0.002  0.006  0.924 -0.005
      -0.004  0.008 -0.002 -0.005  0.930
     SPIN  2
     eigenvalues:
       0.651  0.653  0.843  0.847  0.874
     eigenvectors (columns):
       0.874 -0.000  0.000 -0.357  0.330
       0.420  0.158  0.474  0.596 -0.468
      -0.242  0.274  0.822 -0.344  0.270
       0.017 -0.822  0.274 -0.316 -0.387
      -0.030 -0.474  0.158  0.547  0.670
     occupation matrix ns (before diag.):
       0.700 -0.076  0.044 -0.006  0.011
      -0.076  0.812  0.007  0.028  0.008
       0.044  0.007  0.820  0.041  0.028
      -0.006  0.028  0.041  0.720 -0.083
       0.011  0.008  0.028 -0.083  0.815
     ------------------------ ATOM    2 ------------------------
     Tr[ns(  2)] (up, down, total) =   3.85595  4.63771  8.49366
     Atomic magnetic moment for atom   2 =  -0.78176
     SPIN  1
     eigenvalues:
       0.648  0.655  0.837  0.840  0.877
     eigenvectors (columns):
       0.886  0.000 -0.329 -0.000 -0.328
       0.399 -0.159  0.610  0.474  0.467
      -0.231 -0.275 -0.352  0.821 -0.270
       0.027  0.821 -0.315  0.275  0.388
      -0.046  0.474  0.545  0.159 -0.672
     occupation matrix ns (before diag.):
       0.693 -0.073  0.042 -0.010  0.017
      -0.073  0.811  0.006  0.029  0.005
       0.042  0.006  0.818  0.039  0.029
      -0.010  0.029  0.039  0.720 -0.081
       0.017  0.005  0.029 -0.081  0.814
     SPIN  2
     eigenvalues:
       0.915  0.915  0.921  0.942  0.944
     eigenvectors (columns):
       0.853 -0.000  0.338  0.000 -0.397
       0.451  0.079 -0.455  0.494  0.583
      -0.261  0.138  0.262  0.855 -0.336
       0.009 -0.855 -0.391  0.138 -0.312
      -0.016 -0.494  0.677  0.079  0.540
     occupation matrix ns (before diag.):
       0.920 -0.008  0.004  0.003 -0.005
      -0.008  0.933  0.005 -0.002  0.008
       0.004  0.005  0.939  0.006 -0.002
       0.003 -0.002  0.006  0.920 -0.006
      -0.005  0.008 -0.002 -0.006  0.927

     Number of occupied Hubbard levels =   17.0166

     HUBBARD ENERGY =    0.3331  (Ry)

     total cpu time spent up to now is        5.1 secs

     total energy              =    -685.79467784 Ry
     estimated scf accuracy    <       0.01407556 Ry

     total magnetization       =    -0.00 Bohr mag/cell
     absolute magnetization    =     1.62 Bohr mag/cell

     iteration #  8     ecut=    40.00 Ry     beta= 0.70
     Davidson diagonalization with overlap

---- Real-time Memory Report at c_bands before calling an iterative solver
           127 MiB given to the printing process from OS
            63 MiB allocation reported by mallinfo(arena+hblkhd)
         31827 MiB available memory on the node where the printing process lives
------------------
     ethr =  3.91E-05,  avg # of iterations =  3.8

     =================== HUBBARD OCCUPATIONS ===================
     ------------------------ ATOM    1 ------------------------
     Tr[ns(  1)] (up, down, total) =   4.61127  3.84072  8.45199
     Atomic magnetic moment for atom   1 =   0.77055
     SPIN  1
     eigenvalues:
       0.908  0.908  0.916  0.939  0.940
     eigenvectors (columns):
       0.863 -0.000  0.300  0.000 -0.406
       0.436  0.077 -0.492  0.494  0.563
      -0.252  0.133  0.284  0.856 -0.325
      -0.018 -0.856 -0.383  0.133 -0.321
       0.031 -0.494  0.663  0.077  0.556
     occupation matrix ns (before diag.):
       0.914 -0.008  0.005  0.003 -0.006
      -0.008  0.928  0.006 -0.002  0.009
       0.005  0.006  0.935  0.006 -0.002
       0.003 -0.002  0.006  0.913 -0.007
      -0.006  0.009 -0.002 -0.007  0.922
     SPIN  2
     eigenvalues:
       0.618  0.621  0.860  0.863  0.878
     eigenvectors (columns):
       0.000  0.878  0.288  0.000 -0.382
       0.153  0.412 -0.529 -0.476  0.548
       0.266 -0.238  0.305 -0.824 -0.317
      -0.824  0.025  0.369 -0.266  0.337
      -0.476 -0.044 -0.639 -0.153 -0.583
     occupation matrix ns (before diag.):
       0.678 -0.090  0.052 -0.008  0.013
      -0.090  0.820  0.012  0.032  0.016
       0.052  0.012  0.833  0.053  0.032
      -0.008  0.032  0.053  0.698 -0.098
       0.013  0.016  0.032 -0.098  0.811
     ------------------------ ATOM    2 ------------------------
     Tr[ns(  2)] (up, down, total) =   3.88732  4.64738  8.53470
     Atomic magnetic moment for atom   2 =  -0.76005
     SPIN  1
     eigenvalues:
       0.628  0.631  0.870  0.873  0.886
     eigenvectors (columns):
      -0.881  0.000 -0.275 -0.000  0.385
      -0.407 -0.146  0.524  0.478 -0.556
       0.235 -0.253 -0.303  0.828  0.321
      -0.028  0.828 -0.373  0.253 -0.331
       0.049  0.478  0.647  0.146  0.574
     occupation matrix ns (before diag.):
       0.684 -0.090  0.052 -0.008  0.014
      -0.090  0.830  0.013  0.030  0.017
       0.052  0.013  0.845  0.051  0.030
      -0.008  0.030  0.051  0.708 -0.097
       0.014  0.017  0.030 -0.097  0.820
     SPIN  2
     eigenvalues:
       0.917  0.918  0.921  0.945  0.946
     eigenvectors (columns):
       0.000  0.873  0.303  0.000 -0.382
       0.091  0.422 -0.476  0.492  0.588
       0.157 -0.244  0.275  0.852 -0.339
      -0.852 -0.002 -0.389  0.157 -0.314
      -0.492  0.004  0.674  0.091  0.544
     occupation matrix ns (before diag.):
       0.922 -0.007  0.004  0.003 -0.005
      -0.007  0.935  0.005 -0.002  0.009
       0.004  0.005  0.941  0.006 -0.002
       0.003 -0.002  0.006  0.922 -0.006
      -0.005  0.009 -0.002 -0.006  0.928

     Number of occupied Hubbard levels =   16.9867

     HUBBARD ENERGY =    0.3316  (Ry)

     total cpu time spent up to now is        5.7 secs

     total energy              =    -685.79912411 Ry
     estimated scf accuracy    <       0.02657644 Ry

     total magnetization       =     0.00 Bohr mag/cell
     absolute magnetization    =     1.58 Bohr mag/cell

     iteration #  9     ecut=    40.00 Ry     beta= 0.70
     Davidson diagonalization with overlap

---- Real-time Memory Report at c_bands before calling an iterative solver
           128 MiB given to the printing process from OS
            63 MiB allocation reported by mallinfo(arena+hblkhd)
         31826 MiB available memory on the node where the printing process lives
------------------
     ethr =  3.91E-05,  avg # of iterations =  1.0

     =================== HUBBARD OCCUPATIONS ===================
     ------------------------ ATOM    1 ------------------------
     Tr[ns(  1)] (up, down, total) =   4.61023  3.84226  8.45249
     Atomic magnetic moment for atom   1 =   0.76797
     SPIN  1
     eigenvalues:
       0.908  0.908  0.915  0.939  0.940
     eigenvectors (columns):
       0.865 -0.000  0.299  0.000 -0.402
       0.433  0.079 -0.494  0.494  0.564
      -0.250  0.136  0.285  0.855 -0.326
      -0.017 -0.855 -0.383  0.136 -0.321
       0.030 -0.494  0.663  0.079  0.557
     occupation matrix ns (before diag.):
       0.914 -0.008  0.005  0.003 -0.006
      -0.008  0.928  0.006 -0.002  0.009
       0.005  0.006  0.934  0.006 -0.002
       0.003 -0.002  0.006  0.913 -0.007
      -0.006  0.009 -0.002 -0.007  0.921
     SPIN  2
     eigenvalues:
       0.619  0.621  0.860  0.863  0.878
     eigenvectors (columns):
       0.000  0.878  0.287  0.000 -0.383
       0.153  0.412 -0.527 -0.476  0.550
       0.265 -0.238  0.305 -0.825 -0.317
      -0.825  0.025  0.370 -0.265  0.336
      -0.476 -0.044 -0.640 -0.153 -0.581
     occupation matrix ns (before diag.):
       0.679 -0.090  0.052 -0.008  0.013
      -0.090  0.820  0.012  0.032  0.016
       0.052  0.012  0.834  0.053  0.032
      -0.008  0.032  0.053  0.698 -0.098
       0.013  0.016  0.032 -0.098  0.811
     ------------------------ ATOM    2 ------------------------
     Tr[ns(  2)] (up, down, total) =   3.88277  4.64277  8.52554
     Atomic magnetic moment for atom   2 =  -0.76000
     SPIN  1
     eigenvalues:
       0.626  0.630  0.869  0.873  0.885
     eigenvectors (columns):
      -0.881  0.000 -0.273 -0.000  0.387
      -0.407 -0.146  0.521  0.478 -0.559
       0.235 -0.254 -0.301  0.828  0.323
      -0.028  0.828 -0.375  0.254 -0.329
       0.049  0.478  0.650  0.146  0.570
     occupation matrix ns (before diag.):
       0.683 -0.091  0.052 -0.008  0.014
      -0.091  0.830  0.013  0.030  0.017
       0.052  0.013  0.844  0.051  0.030
      -0.008  0.030  0.051  0.707 -0.097
       0.014  0.017  0.030 -0.097  0.819
     SPIN  2
     eigenvalues:
       0.916  0.917  0.921  0.944  0.945
     eigenvectors (columns):
       0.000  0.875  0.300  0.000 -0.379
       0.092  0.419 -0.479  0.492  0.587
       0.159 -0.242  0.277  0.851 -0.339
      -0.851 -0.003 -0.388  0.159 -0.315
      -0.492  0.005  0.673  0.092  0.545
     occupation matrix ns (before diag.):
       0.921 -0.007  0.004  0.003 -0.005
      -0.007  0.934  0.005 -0.002  0.009
       0.004  0.005  0.940  0.006 -0.002
       0.003 -0.002  0.006  0.921 -0.006
      -0.005  0.009 -0.002 -0.006  0.927

     Number of occupied Hubbard levels =   16.9780

     HUBBARD ENERGY =    0.3353  (Ry)

     total cpu time spent up to now is        6.1 secs

     total energy              =    -685.79832304 Ry
     estimated scf accuracy    <       0.02870562 Ry

     total magnetization       =    -0.00 Bohr mag/cell
     absolute magnetization    =     1.57 Bohr mag/cell

     iteration # 10     ecut=    40.00 Ry     beta= 0.70
     Davidson diagonalization with overlap

---- Real-time Memory Report at c_bands before calling an iterative solver
           128 MiB given to the printing process from OS
            64 MiB allocation reported by mallinfo(arena+hblkhd)
         31826 MiB available memory on the node where the printing process lives
------------------
     ethr =  3.91E-05,  avg # of iterations =  4.9

     =================== HUBBARD OCCUPATIONS ===================
     ------------------------ ATOM    1 ------------------------
     Tr[ns(  1)] (up, down, total) =   4.58731  3.74693  8.33425
     Atomic magnetic moment for atom   1 =   0.84038
     SPIN  1
     eigenvalues:
       0.901  0.904  0.908  0.937  0.937
     eigenvectors (columns):
       0.000  0.834 -0.296 -0.000  0.466
       0.040  0.474  0.484 -0.498 -0.540
       0.070 -0.273 -0.279 -0.863  0.312
      -0.863 -0.038  0.387 -0.070  0.314
      -0.498  0.066 -0.671 -0.040 -0.543
     occupation matrix ns (before diag.):
       0.912 -0.009  0.005  0.004 -0.008
      -0.009  0.923  0.008 -0.004  0.009
       0.005  0.008  0.932  0.005 -0.004
       0.004 -0.004  0.005  0.906 -0.008
      -0.008  0.009 -0.004 -0.008  0.915
     SPIN  2
     eigenvalues:
       0.580  0.582  0.854  0.857  0.875
     eigenvectors (columns):
       0.000  0.899 -0.000  0.312 -0.306
       0.185  0.373 -0.465 -0.651  0.433
       0.320 -0.215 -0.805  0.376 -0.250
      -0.805  0.037 -0.320  0.291  0.405
      -0.465 -0.064 -0.185 -0.504 -0.702
     occupation matrix ns (before diag.):
       0.636 -0.095  0.055 -0.011  0.020
      -0.095  0.812  0.002  0.040  0.024
       0.055  0.002  0.815  0.071  0.040
      -0.011  0.040  0.071  0.680 -0.108
       0.020  0.024  0.040 -0.108  0.805
     ------------------------ ATOM    2 ------------------------
     Tr[ns(  2)] (up, down, total) =   3.95721  4.71566  8.67287
     Atomic magnetic moment for atom   2 =  -0.75844
     SPIN  1
     eigenvalues:
       0.646  0.655  0.878  0.883  0.896
     eigenvectors (columns):
      -0.887  0.000  0.281  0.000 -0.368
      -0.396 -0.155 -0.560 -0.475  0.529
       0.229 -0.268  0.323 -0.823 -0.305
      -0.033  0.823  0.355 -0.268  0.351
       0.057  0.475 -0.614 -0.155 -0.608
     occupation matrix ns (before diag.):
       0.698 -0.085  0.049 -0.009  0.016
      -0.085  0.842  0.011  0.029  0.016
       0.049  0.011  0.855  0.050  0.029
      -0.009  0.029  0.050  0.729 -0.090
       0.016  0.016  0.029 -0.090  0.833
     SPIN  2
     eigenvalues:
       0.933  0.934  0.935  0.956  0.957
     eigenvectors (columns):
      -0.243 -0.000  0.908  0.000 -0.343
       0.493 -0.112  0.363  0.487  0.613
      -0.284 -0.194 -0.210  0.844 -0.354
       0.393  0.844 -0.011  0.194 -0.309
      -0.680  0.487  0.020  0.112  0.535
     occupation matrix ns (before diag.):
       0.938 -0.004  0.003  0.003 -0.004
      -0.004  0.948  0.004 -0.003  0.009
       0.003  0.004  0.953  0.006 -0.003
       0.003 -0.003  0.006  0.937 -0.003
      -0.004  0.009 -0.003 -0.003  0.940

     Number of occupied Hubbard levels =   17.0071

     HUBBARD ENERGY =    0.3331  (Ry)

     total cpu time spent up to now is        6.9 secs

     total energy              =    -685.80236935 Ry
     estimated scf accuracy    <       0.08318081 Ry

     total magnetization       =     0.00 Bohr mag/cell
     absolute magnetization    =     1.68 Bohr mag/cell

     iteration # 11     ecut=    40.00 Ry     beta= 0.70
     Davidson diagonalization with overlap

---- Real-time Memory Report at c_bands before calling an iterative solver
           128 MiB given to the printing process from OS
            64 MiB allocation reported by mallinfo(arena+hblkhd)
         31825 MiB available memory on the node where the printing process lives
------------------
     ethr =  3.91E-05,  avg # of iterations =  1.0

     =================== HUBBARD OCCUPATIONS ===================
     ------------------------ ATOM    1 ------------------------
     Tr[ns(  1)] (up, down, total) =   4.59276  3.74875  8.34151
     Atomic magnetic moment for atom   1 =   0.84400
     SPIN  1
     eigenvalues:
       0.903  0.905  0.909  0.938  0.938
     eigenvectors (columns):
       0.000 -0.827  0.302  0.000 -0.474
       0.037 -0.483 -0.477  0.499  0.538
       0.064  0.279  0.275  0.864 -0.311
      -0.864  0.036 -0.389  0.064 -0.312
      -0.499 -0.063  0.674  0.037  0.540
     occupation matrix ns (before diag.):
       0.913 -0.009  0.005  0.004 -0.008
      -0.009  0.924  0.008 -0.004  0.009
       0.005  0.008  0.933  0.005 -0.004
       0.004 -0.004  0.005  0.907 -0.008
      -0.008  0.009 -0.004 -0.008  0.916
     SPIN  2
     eigenvalues:
       0.579  0.581  0.854  0.858  0.877
     eigenvectors (columns):
       0.000  0.900 -0.000  0.313 -0.303
       0.186  0.372 -0.464 -0.655  0.427
       0.322 -0.215 -0.804  0.378 -0.247
      -0.804  0.037 -0.322  0.287  0.408
      -0.464 -0.065 -0.186 -0.497 -0.706
     occupation matrix ns (before diag.):
       0.635 -0.095  0.055 -0.012  0.020
      -0.095  0.812  0.002  0.041  0.025
       0.055  0.002  0.815  0.071  0.041
      -0.012  0.041  0.071  0.680 -0.109
       0.020  0.025  0.041 -0.109  0.806
     ------------------------ ATOM    2 ------------------------
     Tr[ns(  2)] (up, down, total) =   3.95994  4.71876  8.67870
     Atomic magnetic moment for atom   2 =  -0.75882
     SPIN  1
     eigenvalues:
       0.647  0.656  0.878  0.883  0.896
     eigenvectors (columns):
      -0.887  0.000  0.283  0.000 -0.364
      -0.396 -0.155 -0.565 -0.475  0.524
       0.228 -0.269  0.326 -0.823 -0.303
      -0.033  0.823  0.352 -0.269  0.354
       0.057  0.475 -0.609 -0.155 -0.613
     occupation matrix ns (before diag.):
       0.698 -0.085  0.049 -0.009  0.016
      -0.085  0.843  0.011  0.029  0.016
       0.049  0.011  0.855  0.050  0.029
      -0.009  0.029  0.050  0.730 -0.090
       0.016  0.016  0.029 -0.090  0.834
     SPIN  2
     eigenvalues:
       0.933  0.935  0.936  0.957  0.958
     eigenvectors (columns):
      -0.237 -0.000  0.907  0.000 -0.348
       0.495 -0.108  0.364  0.488  0.611
      -0.286 -0.188 -0.210  0.845 -0.353
       0.393  0.845 -0.016  0.188 -0.309
      -0.681  0.488  0.028  0.108  0.535
     occupation matrix ns (before diag.):
       0.938 -0.004  0.003  0.003 -0.004
      -0.004  0.948  0.004 -0.003  0.009
       0.003  0.004  0.953  0.006 -0.003
       0.003 -0.003  0.006  0.938 -0.003
      -0.004  0.009 -0.003 -0.003  0.941

     Number of occupied Hubbard levels =   17.0202

     HUBBARD ENERGY =    0.3342  (Ry)

     total cpu time spent up to now is        7.3 secs

     total energy              =    -685.79739575 Ry
     estimated scf accuracy    <       0.07840954 Ry

     total magnetization       =     0.00 Bohr mag/cell
     absolute magnetization    =     1.69 Bohr mag/cell

     iteration # 12     ecut=    40.00 Ry     beta= 0.70
     Davidson diagonalization with overlap

---- Real-time Memory Report at c_bands before calling an iterative solver
           129 MiB given to the printing process from OS
            64 MiB allocation reported by mallinfo(arena+hblkhd)
         31825 MiB available memory on the node where the printing process lives
------------------
     ethr =  3.91E-05,  avg # of iterations =  2.7

     =================== HUBBARD OCCUPATIONS ===================
     ------------------------ ATOM    1 ------------------------
     Tr[ns(  1)] (up, down, total) =   4.62582  3.78005  8.40587
     Atomic magnetic moment for atom   1 =   0.84577
     SPIN  1
     eigenvalues:
       0.912  0.913  0.916  0.942  0.943
     eigenvectors (columns):
       0.000  0.819  0.338  0.000 -0.463
       0.044  0.496 -0.456  0.498  0.544
       0.077 -0.286  0.263  0.863 -0.314
      -0.863 -0.015 -0.390  0.077 -0.313
      -0.498  0.027  0.675  0.044  0.541
     occupation matrix ns (before diag.):
       0.920 -0.008  0.005  0.004 -0.007
      -0.008  0.930  0.007 -0.003  0.009
       0.005  0.007  0.938  0.005 -0.003
       0.004 -0.003  0.005  0.916 -0.006
      -0.007  0.009 -0.003 -0.006  0.923
     SPIN  2
     eigenvalues:
       0.587  0.587  0.861  0.863  0.883
     eigenvectors (columns):
       0.000  0.901  0.000 -0.311  0.304
       0.186  0.371  0.464  0.655 -0.429
       0.322 -0.214  0.804 -0.378  0.247
      -0.804  0.038  0.322 -0.288 -0.407
      -0.464 -0.066  0.186  0.499  0.705
     occupation matrix ns (before diag.):
       0.641 -0.095  0.055 -0.012  0.021
      -0.095  0.819  0.002  0.040  0.025
       0.055  0.002  0.821  0.071  0.040
      -0.012  0.040  0.071  0.687 -0.108
       0.021  0.025  0.040 -0.108  0.812
     ------------------------ ATOM    2 ------------------------
     Tr[ns(  2)] (up, down, total) =   3.92444  4.70545  8.62989
     Atomic magnetic moment for atom   2 =  -0.78101
     SPIN  1
     eigenvalues:
       0.635  0.644  0.875  0.879  0.893
     eigenvectors (columns):
      -0.889  0.000  0.285  0.000 -0.359
      -0.392 -0.159 -0.576 -0.474  0.514
       0.227 -0.276  0.332 -0.821 -0.297
      -0.035  0.821  0.345 -0.276  0.360
       0.060  0.474 -0.598 -0.159 -0.623
     occupation matrix ns (before diag.):
       0.688 -0.087  0.050 -0.010  0.017
      -0.087  0.838  0.010  0.031  0.018
       0.050  0.010  0.849  0.053  0.031
      -0.010  0.031  0.053  0.721 -0.093
       0.017  0.018  0.031 -0.093  0.829
     SPIN  2
     eigenvalues:
       0.930  0.932  0.933  0.954  0.955
     eigenvectors (columns):
      -0.267 -0.000  0.899  0.000 -0.348
       0.489 -0.101  0.379  0.490  0.606
      -0.282 -0.174 -0.219  0.848 -0.350
       0.390  0.848 -0.005  0.174 -0.312
      -0.676  0.490  0.009  0.101  0.541
     occupation matrix ns (before diag.):
       0.936 -0.004  0.002  0.003 -0.005
      -0.004  0.946  0.005 -0.003  0.009
       0.002  0.005  0.951  0.006 -0.003
       0.003 -0.003  0.006  0.935 -0.003
      -0.005  0.009 -0.003 -0.003  0.938

     Number of occupied Hubbard levels =   17.0358

     HUBBARD ENERGY =    0.3352  (Ry)

     total cpu time spent up to now is        7.8 secs

     total energy              =    -685.79809974 Ry
     estimated scf accuracy    <       0.03503377 Ry

     total magnetization       =    -0.00 Bohr mag/cell
     absolute magnetization    =     1.70 Bohr mag/cell

     iteration # 13     ecut=    40.00 Ry     beta= 0.70
     Davidson diagonalization with overlap

---- Real-time Memory Report at c_bands before calling an iterative solver
           129 MiB given to the printing process from OS
            64 MiB allocation reported by mallinfo(arena+hblkhd)
         31825 MiB available memory on the node where the printing process lives
------------------
     ethr =  3.91E-05,  avg # of iterations =  1.0

     =================== HUBBARD OCCUPATIONS ===================
     ------------------------ ATOM    1 ------------------------
     Tr[ns(  1)] (up, down, total) =   4.62808  3.78602  8.41410
     Atomic magnetic moment for atom   1 =   0.84207
     SPIN  1
     eigenvalues:
       0.913  0.914  0.916  0.943  0.943
     eigenvectors (columns):
       0.000  0.819  0.344  0.000 -0.460
       0.046  0.497 -0.453  0.498  0.546
       0.079 -0.287  0.261  0.862 -0.315
      -0.862 -0.012 -0.390  0.079 -0.313
      -0.498  0.021  0.675  0.046  0.542
     occupation matrix ns (before diag.):
       0.920 -0.008  0.004  0.004 -0.007
      -0.008  0.930  0.007 -0.003  0.009
       0.004  0.007  0.938  0.005 -0.003
       0.004 -0.003  0.005  0.916 -0.006
      -0.007  0.009 -0.003 -0.006  0.923
     SPIN  2
     eigenvalues:
       0.588  0.588  0.862  0.864  0.883
     eigenvectors (columns):
       0.000  0.901  0.000 -0.310  0.304
       0.186  0.370  0.464  0.655 -0.429
       0.323 -0.214  0.804 -0.378  0.248
      -0.804  0.038  0.323 -0.288 -0.407
      -0.464 -0.066  0.186  0.499  0.705
     occupation matrix ns (before diag.):
       0.642 -0.094  0.055 -0.012  0.021
      -0.094  0.820  0.002  0.040  0.025
       0.055  0.002  0.822  0.071  0.040
      -0.012  0.040  0.071  0.689 -0.108
       0.021  0.025  0.040 -0.108  0.813
     ------------------------ ATOM    2 ------------------------
     Tr[ns(  2)] (up, down, total) =   3.92210  4.70278  8.62488
     Atomic magnetic moment for atom   2 =  -0.78068
     SPIN  1
     eigenvalues:
       0.634  0.643  0.874  0.878  0.892
     eigenvectors (columns):
      -0.889  0.000  0.285  0.000 -0.358
      -0.392 -0.160 -0.577 -0.474  0.513
       0.226 -0.276  0.333 -0.821 -0.296
      -0.035  0.821  0.344 -0.276  0.361
       0.060  0.474 -0.596 -0.160 -0.625
     occupation matrix ns (before diag.):
       0.687 -0.087  0.050 -0.010  0.017
      -0.087  0.837  0.010  0.031  0.018
       0.050  0.010  0.849  0.053  0.031
      -0.010  0.031  0.053  0.721 -0.093
       0.017  0.018  0.031 -0.093  0.829
     SPIN  2
     eigenvalues:
       0.930  0.931  0.933  0.954  0.955
     eigenvectors (columns):
      -0.252 -0.000  0.901  0.000 -0.353
       0.496 -0.098  0.375  0.490  0.603
      -0.286 -0.170 -0.217  0.849 -0.348
       0.390  0.849 -0.014  0.170 -0.313
      -0.676  0.490  0.023  0.098  0.541
     occupation matrix ns (before diag.):
       0.935 -0.004  0.003  0.003 -0.005
      -0.004  0.945  0.005 -0.003  0.009
       0.003  0.005  0.951  0.006 -0.003
       0.003 -0.003  0.006  0.934 -0.003
      -0.005  0.009 -0.003 -0.003  0.938

     Number of occupied Hubbard levels =   17.0390

     HUBBARD ENERGY =    0.3331  (Ry)

     total cpu time spent up to now is        8.3 secs

     total energy              =    -685.79752322 Ry
     estimated scf accuracy    <       0.03160182 Ry

     total magnetization       =     0.00 Bohr mag/cell
     absolute magnetization    =     1.70 Bohr mag/cell

     iteration # 14     ecut=    40.00 Ry     beta= 0.70
     Davidson diagonalization with overlap

---- Real-time Memory Report at c_bands before calling an iterative solver
           129 MiB given to the printing process from OS
            64 MiB allocation reported by mallinfo(arena+hblkhd)
         31824 MiB available memory on the node where the printing process lives
------------------
     ethr =  3.91E-05,  avg # of iterations =  2.1

     =================== HUBBARD OCCUPATIONS ===================
     ------------------------ ATOM    1 ------------------------
     Tr[ns(  1)] (up, down, total) =   4.64702  3.80243  8.44945
     Atomic magnetic moment for atom   1 =   0.84459
     SPIN  1
     eigenvalues:
       0.918  0.919  0.920  0.945  0.945
     eigenvectors (columns):
       0.000  0.817 -0.363  0.000 -0.447
       0.051  0.499  0.428  0.497  0.564
       0.088 -0.288 -0.247  0.862 -0.326
      -0.862  0.008  0.395  0.088 -0.307
      -0.497 -0.014 -0.684  0.051  0.531
     occupation matrix ns (before diag.):
       0.925 -0.007  0.004  0.004 -0.006
      -0.007  0.934  0.006 -0.003  0.008
       0.004  0.006  0.941  0.005 -0.003
       0.004 -0.003  0.005  0.921 -0.005
      -0.006  0.008 -0.003 -0.005  0.926
     SPIN  2
     eigenvalues:
       0.591  0.591  0.866  0.868  0.887
     eigenvectors (columns):
       0.901 -0.000  0.000 -0.305  0.307
       0.369  0.186  0.464  0.652 -0.435
      -0.213  0.323  0.804 -0.376  0.251
       0.039 -0.804  0.323 -0.292 -0.404
      -0.068 -0.464  0.186  0.505  0.700
     occupation matrix ns (before diag.):
       0.644 -0.095  0.055 -0.012  0.021
      -0.095  0.824  0.002  0.040  0.025
       0.055  0.002  0.826  0.072  0.040
      -0.012  0.040  0.072  0.691 -0.108
       0.021  0.025  0.040 -0.108  0.816
     ------------------------ ATOM    2 ------------------------
     Tr[ns(  2)] (up, down, total) =   3.89862  4.69560  8.59422
     Atomic magnetic moment for atom   2 =  -0.79697
     SPIN  1
     eigenvalues:
       0.626  0.631  0.873  0.877  0.891
     eigenvectors (columns):
      -0.894  0.000  0.275 -0.000 -0.353
      -0.382 -0.167 -0.584  0.471  0.513
       0.221 -0.288  0.337  0.817 -0.296
      -0.038  0.817  0.343  0.288  0.362
       0.066  0.471 -0.594  0.167 -0.627
     occupation matrix ns (before diag.):
       0.678 -0.088  0.051 -0.011  0.018
      -0.088  0.836  0.008  0.033  0.020
       0.051  0.008  0.845  0.058  0.033
      -0.011  0.033  0.058  0.714 -0.096
       0.018  0.020  0.033 -0.096  0.826
     SPIN  2
     eigenvalues:
       0.928  0.930  0.931  0.953  0.954
     eigenvectors (columns):
      -0.258 -0.000  0.897  0.000 -0.358
       0.496 -0.096  0.381  0.491  0.599
      -0.286 -0.166 -0.220  0.850 -0.346
       0.389  0.850 -0.013  0.166 -0.314
      -0.674  0.491  0.023  0.096  0.543
     occupation matrix ns (before diag.):
       0.934 -0.004  0.003  0.003 -0.005
      -0.004  0.944  0.005 -0.003  0.009
       0.003  0.005  0.949  0.006 -0.003
       0.003 -0.003  0.006  0.933 -0.003
      -0.005  0.009 -0.003 -0.003  0.936

     Number of occupied Hubbard levels =   17.0437

     HUBBARD ENERGY =    0.3325  (Ry)

     total cpu time spent up to now is        8.8 secs

     total energy              =    -685.79886099 Ry
     estimated scf accuracy    <       0.01618095 Ry

     total magnetization       =    -0.00 Bohr mag/cell
     absolute magnetization    =     1.71 Bohr mag/cell

     iteration # 15     ecut=    40.00 Ry     beta= 0.70
     Davidson diagonalization with overlap

---- Real-time Memory Report at c_bands before calling an iterative solver
           129 MiB given to the printing process from OS
            64 MiB allocation reported by mallinfo(arena+hblkhd)
         31824 MiB available memory on the node where the printing process lives
------------------
     ethr =  3.91E-05,  avg # of iterations =  1.0

     =================== HUBBARD OCCUPATIONS ===================
     ------------------------ ATOM    1 ------------------------
     Tr[ns(  1)] (up, down, total) =   4.64647  3.80026  8.44673
     Atomic magnetic moment for atom   1 =   0.84621
     SPIN  1
     eigenvalues:
       0.917  0.919  0.919  0.945  0.945
     eigenvectors (columns):
       0.000  0.096  0.888  0.000 -0.449
       0.050  0.622  0.217  0.498  0.562
       0.086 -0.359 -0.125  0.862 -0.325
      -0.862  0.345 -0.192  0.086 -0.307
      -0.498 -0.597  0.333  0.050  0.532
     occupation matrix ns (before diag.):
       0.925 -0.007  0.004  0.004 -0.006
      -0.007  0.934  0.006 -0.003  0.008
       0.004  0.006  0.941  0.005 -0.003
       0.004 -0.003  0.005  0.921 -0.005
      -0.006  0.008 -0.003 -0.005  0.926
     SPIN  2
     eigenvalues:
       0.589  0.590  0.866  0.868  0.886
     eigenvectors (columns):
       0.902 -0.000  0.000  0.306 -0.305
       0.368  0.187  0.464 -0.655  0.430
      -0.212  0.324  0.803  0.378 -0.249
       0.039 -0.803  0.324  0.289  0.406
      -0.068 -0.464  0.187 -0.501 -0.703
     occupation matrix ns (before diag.):
       0.643 -0.095  0.055 -0.012  0.021
      -0.095  0.824  0.002  0.041  0.026
       0.055  0.002  0.826  0.072  0.041
      -0.012  0.041  0.072  0.691 -0.108
       0.021  0.026  0.041 -0.108  0.816
     ------------------------ ATOM    2 ------------------------
     Tr[ns(  2)] (up, down, total) =   3.90008  4.69734  8.59742
     Atomic magnetic moment for atom   2 =  -0.79726
     SPIN  1
     eigenvalues:
       0.626  0.631  0.874  0.877  0.892
     eigenvectors (columns):
      -0.895  0.000  0.274 -0.000 -0.353
      -0.381 -0.167 -0.586  0.471  0.512
       0.220 -0.290  0.338  0.816 -0.296
      -0.038  0.816  0.342  0.290  0.363
       0.066  0.471 -0.592  0.167 -0.628
     occupation matrix ns (before diag.):
       0.677 -0.088  0.051 -0.011  0.019
      -0.088  0.837  0.008  0.033  0.020
       0.051  0.008  0.845  0.058  0.033
      -0.011  0.033  0.058  0.715 -0.097
       0.019  0.020  0.033 -0.097  0.826
     SPIN  2
     eigenvalues:
       0.929  0.930  0.931  0.953  0.954
     eigenvectors (columns):
      -0.250 -0.000  0.899  0.000 -0.361
       0.499 -0.095  0.379  0.491  0.598
      -0.288 -0.164 -0.219  0.850 -0.345
       0.389  0.850 -0.018  0.164 -0.314
      -0.674  0.491  0.030  0.095  0.543
     occupation matrix ns (before diag.):
       0.934 -0.005  0.003  0.003 -0.005
      -0.005  0.944  0.005 -0.003  0.009
       0.003  0.005  0.949  0.006 -0.003
       0.003 -0.003  0.006  0.933 -0.003
      -0.005  0.009 -0.003 -0.003  0.937

     Number of occupied Hubbard levels =   17.0442

     HUBBARD ENERGY =    0.3326  (Ry)

     total cpu time spent up to now is        9.2 secs

[...]
     1.0000   1.0000

          k = 0.4167-0.0481-0.0340 (   620 PWs)   bands (ev):

   -85.2007 -83.9174 -45.7410 -45.7066 -45.6092 -44.4610 -44.4353 -44.4217
     9.8107  12.0675  13.8648  14.0536  14.3142  14.5097  15.0115  15.5209
    15.5672  15.7207

     occupation numbers 
     1.0000   1.0000   1.0000   1.0000   1.0000   1.0000   1.0000   1.0000
     1.0000   1.0000   1.0000   1.0000   1.0000   1.0000   1.0000   1.0000
     1.0000   1.0000

          k = 0.4167-0.0481 0.3742 (   622 PWs)   bands (ev):

   -85.1923 -83.9086 -45.8030 -45.7195 -45.6030 -44.5025 -44.4498 -44.4350
    10.6109  13.0318  13.4326  13.8031  14.5306  14.7930  14.9062  15.3062
    16.0309  16.2604

     occupation numbers 
     1.0000   1.0000   1.0000   1.0000   1.0000   1.0000   1.0000   1.0000
     1.0000   1.0000   1.0000   1.0000   1.0000   1.0000   1.0000   1.0000
     1.0000   1.0000

          k = 0.4167-0.0481 0.7825 (   617 PWs)   bands (ev):

   -85.1811 -83.8969 -45.8816 -45.7413 -45.5895 -44.5864 -44.4590 -44.4416
    12.3206  13.0404  13.0700  14.2513  14.3284  14.9071  15.5420  15.7731
    16.1366  17.0010

     occupation numbers 
     1.0000   1.0000   1.0000   1.0000   1.0000   1.0000   1.0000   1.0000
     1.0000   1.0000   1.0000   1.0000   1.0000   1.0000   1.0000   1.0000
     1.0000   1.0000

          k = 0.4167-0.0481-1.2588 (   623 PWs)   bands (ev):

   -85.1781 -83.8940 -45.9035 -45.7476 -45.5863 -44.6067 -44.4655 -44.4397
    12.3364  12.4640  13.8374  14.0156  14.5390  15.0275  15.8427  16.1803
    16.4068  18.0013

     occupation numbers 
     1.0000   1.0000   1.0000   1.0000   1.0000   1.0000   1.0000   1.0000
     1.0000   1.0000   1.0000   1.0000   1.0000   1.0000   1.0000   1.0000
     1.0000   1.0000

          k = 0.4167-0.0481-0.8505 (   626 PWs)   bands (ev):

   -85.1861 -83.9025 -45.8470 -45.7310 -45.5948 -44.5455 -44.4482 -44.4471
    12.2214  12.5170  13.6263  13.9901  14.3587  14.6360  15.2686  15.6973
    16.2661  16.5464

     occupation numbers 
     1.0000   1.0000   1.0000   1.0000   1.0000   1.0000   1.0000   1.0000
     1.0000   1.0000   1.0000   1.0000   1.0000   1.0000   1.0000   1.0000
     1.0000   1.0000

          k = 0.4167-0.0481-0.4423 (   620 PWs)   bands (ev):

   -85.1974 -83.9141 -45.7647 -45.7105 -45.6042 -44.4674 -44.4540 -44.4251
    10.9170  11.9677  13.6087  13.9561  14.2938  14.3901  14.9403  15.3814
    15.6030  15.8992

     occupation numbers 
     1.0000   1.0000   1.0000   1.0000   1.0000   1.0000   1.0000   1.0000
     1.0000   1.0000   1.0000   1.0000   1.0000   1.0000   1.0000   1.0000
     1.0000   1.0000

          k = 0.4167 0.3368-0.1701 (   622 PWs)   bands (ev):

   -85.1923 -83.9086 -45.7724 -45.7503 -45.6028 -44.4880 -44.4550 -44.4443
    10.6109  13.0275  13.4490  13.8074  14.5116  14.7915  14.9128  15.3021
    16.0269  16.2296

     occupation numbers 
     1.0000   1.0000   1.0000   1.0000   1.0000   1.0000   1.0000   1.0000
     1.0000   1.0000   1.0000   1.0000   1.0000   1.0000   1.0000   1.0000
     1.0000   1.0000

          k = 0.4167 0.3368 0.2381 (   620 PWs)   bands (ev):

   -85.1903 -83.9063 -45.8001 -45.7426 -45.6021 -44.5110 -44.4520 -44.4414
    10.7277  12.8342  13.4303  13.8973  14.4962  14.8171  15.0066  15.6445
    16.0810  16.3488

     occupation numbers 
     1.0000   1.0000   1.0000   1.0000   1.0000   1.0000   1.0000   1.0000
     1.0000   1.0000   1.0000   1.0000   1.0000   1.0000   1.0000   1.0000
     1.0000   1.0000

          k = 0.4167 0.3368 0.6464 (   621 PWs)   bands (ev):

   -85.1818 -83.8977 -45.8539 -45.7626 -45.5913 -44.5631 -44.4753 -44.4405
    12.3540  13.0319  13.1704  13.8153  14.3284  15.0372  15.5716  15.6166
    16.0012  16.8471

     occupation numbers 
     1.0000   1.0000   1.0000   1.0000   1.0000   1.0000   1.0000   1.0000
     1.0000   1.0000   1.0000   1.0000   1.0000   1.0000   1.0000   1.0000
     1.0000   1.0000

          k = 0.4167 0.3368-1.3948 (   614 PWs)   bands (ev):

   -85.1757 -83.8916 -45.8781 -45.7936 -45.5847 -44.5802 -44.5128 -44.4365
    12.7451  12.9899  13.6618  13.8181  14.0754  15.1537  15.7103  16.2567
    16.4159  17.4170

     occupation numbers 
     1.0000   1.0000   1.0000   1.0000   1.0000   1.0000   1.0000   1.0000
     1.0000   1.0000   1.0000   1.0000   1.0000   1.0000   1.0000   1.0000
     1.0000   1.0000

          k = 0.4167 0.3368-0.9866 (   623 PWs)   bands (ev):

   -85.1779 -83.8940 -45.8722 -45.7807 -45.5874 -44.5738 -44.4973 -44.4385
    12.4930  13.1452  13.3527  13.8865  14.0709  15.2813  15.4297  16.5277
    16.7441  17.0124

     occupation numbers 
     1.0000   1.0000   1.0000   1.0000   1.0000   1.0000   1.0000   1.0000
     1.0000   1.0000   1.0000   1.0000   1.0000   1.0000   1.0000   1.0000
     1.0000   1.0000

          k = 0.4167 0.3368-0.5784 (   620 PWs)   bands (ev):

   -85.1861 -83.9023 -45.8299 -45.7474 -45.5945 -44.5384 -44.4578 -44.4452
    11.9034  12.8451  13.6668  13.8750  14.4285  14.6611  15.2364  15.5201
    16.0602  16.4296

     occupation numbers 
     1.0000   1.0000   1.0000   1.0000   1.0000   1.0000   1.0000   1.0000
     1.0000   1.0000   1.0000   1.0000   1.0000   1.0000   1.0000   1.0000
     1.0000   1.0000

          k = 0.4167 0.7217-0.3062 (   617 PWs)   bands (ev):

   -85.1811 -83.8969 -45.8536 -45.7698 -45.5891 -44.5728 -44.4730 -44.4412
    12.3204  13.0355  13.0867  14.2535  14.3124  14.9018  15.5462  15.7454
    16.1258  17.0060

     occupation numbers 
     1.0000   1.0000   1.0000   1.0000   1.0000   1.0000   1.0000   1.0000
     1.0000   1.0000   1.0000   1.0000   1.0000   1.0000   1.0000   1.0000
     1.0000   1.0000

          k = 0.4167 0.7217 0.1021 (   621 PWs)   bands (ev):

   -85.1818 -83.8977 -45.8311 -45.7859 -45.5909 -44.5531 -44.4847 -44.4411
    12.3533  13.0317  13.1888  13.8049  14.3166  15.0352  15.5707  15.6204
    15.9763  16.8572

     occupation numbers 
     1.0000   1.0000   1.0000   1.0000   1.0000   1.0000   1.0000   1.0000
     1.0000   1.0000   1.0000   1.0000   1.0000   1.0000   1.0000   1.0000
     1.0000   1.0000

          k = 0.4167 0.7217 0.5103 (   621 PWs)   bands (ev):

   -85.1798 -83.8955 -45.8722 -45.7633 -45.5866 -44.5908 -44.4689 -44.4411
    12.3152  13.0102  13.1668  14.3329  14.6912  14.8013  15.4849  15.6195
    16.3216  17.6973

     occupation numbers 
     1.0000   1.0000   1.0000   1.0000   1.0000   1.0000   1.0000   1.0000
     1.0000   1.0000   1.0000   1.0000   1.0000   1.0000   1.0000   1.0000
     1.0000   1.0000

          k = 0.4167 0.7217-1.5309 (   619 PWs)   bands (ev):

   -85.1766 -83.8923 -45.8707 -45.7930 -45.5839 -44.5874 -44.4995 -44.4387
    12.7558  12.9685  13.5908  13.8997  14.2336  14.9918  15.7870  15.9797
    16.1887  17.7650

     occupation numbers 
     1.0000   1.0000   1.0000   1.0000   1.0000   1.0000   1.0000   1.0000
     1.0000   1.0000   1.0000   1.0000   1.0000   1.0000   1.0000   1.0000
     1.0000   1.0000

          k = 0.4167 0.7217-1.1227 (   615 PWs)   bands (ev):

   -85.1757 -83.8915 -45.8500 -45.8216 -45.5838 -44.5672 -44.5265 -44.4373
    13.0315  13.1136  13.4772  13.6896  14.1216  15.1589  15.6851  16.0264
    16.2427  17.5237

     occupation numbers 
     1.0000   1.0000   1.0000   1.0000   1.0000   1.0000   1.0000   1.0000
     1.0000   1.0000   1.0000   1.0000   1.0000   1.0000   1.0000   1.0000
     1.0000   1.0000

          k = 0.4167 0.7217-0.7144 (   621 PWs)   bands (ev):

   -85.1781 -83.8938 -45.8787 -45.7716 -45.5847 -44.5966 -44.4779 -44.4403
    12.4593  12.9582  13.3865  14.3230  14.3716  14.9281  15.5959  15.8395
    16.2265  18.0493

     occupation numbers 
     1.0000   1.0000   1.0000   1.0000   1.0000   1.0000   1.0000   1.0000
     1.0000   1.0000   1.0000   1.0000   1.0000   1.0000   1.0000   1.0000
     1.0000   1.0000

          k = 0.4167-1.2028 0.3742 (   623 PWs)   bands (ev):

   -85.1781 -83.8940 -45.8797 -45.7718 -45.5859 -44.5950 -44.4777 -44.4393
    12.3395  12.4699  13.8332  14.0054  14.5245  15.0376  15.8403  16.1576
    16.3996  18.0385

     occupation numbers 
     1.0000   1.0000   1.0000   1.0000   1.0000   1.0000   1.0000   1.0000
     1.0000   1.0000   1.0000   1.0000   1.0000   1.0000   1.0000   1.0000
     1.0000   1.0000

          k = 0.4167-1.2028 0.7825 (   614 PWs)   bands (ev):

   -85.1757 -83.8916 -45.8507 -45.8213 -45.5845 -44.5658 -44.5271 -44.4366
    12.7615  12.9851  13.6458  13.8216  14.0695  15.1469  15.7125  16.2503
    16.4117  17.4354

     occupation numbers 
     1.0000   1.0000   1.0000   1.0000   1.0000   1.0000   1.0000   1.0000
     1.0000   1.0000   1.0000   1.0000   1.0000   1.0000   1.0000   1.0000
     1.0000   1.0000

          k = 0.4167-1.2028 1.1907 (   619 PWs)   bands (ev):

   -85.1766 -83.8923 -45.8704 -45.7932 -45.5840 -44.5875 -44.4995 -44.4385
    12.7588  12.9709  13.5916  13.8882  14.2314  14.9918  15.7973  15.9739
    16.1967  17.7594

     occupation numbers 
     1.0000   1.0000   1.0000   1.0000   1.0000   1.0000   1.0000   1.0000
     1.0000   1.0000   1.0000   1.0000   1.0000   1.0000   1.0000   1.0000
     1.0000   1.0000

          k = 0.4167-1.2028-0.8505 (   620 PWs)   bands (ev):

   -85.1799 -83.8957 -45.8728 -45.7635 -45.5882 -44.5898 -44.4685 -44.4392
    12.1368  12.5775  13.3633  14.3286  14.5687  15.0719  15.6430  16.0220
    16.3957  17.3430

     occupation numbers 
     1.0000   1.0000   1.0000   1.0000   1.0000   1.0000   1.0000   1.0000
     1.0000   1.0000   1.0000   1.0000   1.0000   1.0000   1.0000   1.0000
     1.0000   1.0000

          k = 0.4167-1.2028-0.4423 (   618 PWs)   bands (ev):

   -85.1818 -83.8978 -45.8318 -45.7857 -45.5914 -44.5522 -44.4847 -44.4406
    12.2713  12.8677  13.2965  13.8878  14.3257  14.9851  15.5156  15.7658
    16.2779  16.8011

     occupation numbers 
     1.0000   1.0000   1.0000   1.0000   1.0000   1.0000   1.0000   1.0000
     1.0000   1.0000   1.0000   1.0000   1.0000   1.0000   1.0000   1.0000
     1.0000   1.0000

          k = 0.4167-1.2028-0.0340 (   618 PWs)   bands (ev):

   -85.1810 -83.8969 -45.8539 -45.7698 -45.5884 -44.5722 -44.4733 -44.4420
    12.4210  12.7307  13.5560  14.1969  14.3737  14.7600  15.5562  15.7856
    16.2049  17.0692

     occupation numbers 
     1.0000   1.0000   1.0000   1.0000   1.0000   1.0000   1.0000   1.0000
     1.0000   1.0000   1.0000   1.0000   1.0000   1.0000   1.0000   1.0000
     1.0000   1.0000

          k = 0.4167-0.8179 0.2381 (   626 PWs)   bands (ev):

   -85.1861 -83.9025 -45.8308 -45.7475 -45.5946 -44.5371 -44.4575 -44.4461
    12.2245  12.5163  13.6245  13.9969  14.3484  14.6278  15.2715  15.6943
    16.2662  16.5362

     occupation numbers 
     1.0000   1.0000   1.0000   1.0000   1.0000   1.0000   1.0000   1.0000
     1.0000   1.0000   1.0000   1.0000   1.0000   1.0000   1.0000   1.0000
     1.0000   1.0000

          k = 0.4167-0.8179 0.6464 (   623 PWs)   bands (ev):

   -85.1779 -83.8940 -45.8721 -45.7808 -45.5873 -44.5739 -44.4972 -44.4385
    12.4955  13.1418  13.3550  13.8879  14.0620  15.2828  15.4287  16.5312
    16.7640  17.0003

     occupation numbers 
     1.0000   1.0000   1.0000   1.0000   1.0000   1.0000   1.0000   1.0000
     1.0000   1.0000   1.0000   1.0000   1.0000   1.0000   1.0000   1.0000
     1.0000   1.0000

          k = 0.4167-0.8179 1.0546 (   615 PWs)   bands (ev):

   -85.1757 -83.8915 -45.8773 -45.7940 -45.5840 -44.5816 -44.5123 -44.4371
    13.0221  13.1145  13.4890  13.6830  14.1200  15.1660  15.6829  16.0376
    16.2638  17.4953

     occupation numbers 
     1.0000   1.0000   1.0000   1.0000   1.0000   1.0000   1.0000   1.0000
     1.0000   1.0000   1.0000   1.0000   1.0000   1.0000   1.0000   1.0000
     1.0000   1.0000

          k = 0.4167-0.8179-0.9866 (   618 PWs)   bands (ev):

   -85.1818 -83.8978 -45.8545 -45.7626 -45.5917 -44.5621 -44.4750 -44.4403
    12.2696  12.8674  13.2802  13.9002  14.3354  14.9856  15.5206  15.7633
    16.3048  16.7914

     occupation numbers 
     1.0000   1.0000   1.0000   1.0000   1.0000   1.0000   1.0000   1.0000
     1.0000   1.0000   1.0000   1.0000   1.0000   1.0000   1.0000   1.0000
     1.0000   1.0000

          k = 0.4167-0.8179-0.5784 (   620 PWs)   bands (ev):

   -85.1901 -83.9064 -45.8008 -45.7427 -45.6005 -44.5099 -44.4529 -44.4424
    11.1243  12.6550  13.3365  14.0346  14.4877  14.7354  15.0149  15.5341
    16.0886  16.5799

     occupation numbers 
     1.0000   1.0000   1.0000   1.0000   1.0000   1.0000   1.0000   1.0000
     1.0000   1.0000   1.0000   1.0000   1.0000   1.0000   1.0000   1.0000
     1.0000   1.0000

          k = 0.4167-0.8179-0.1701 (   617 PWs)   bands (ev):

   -85.1921 -83.9086 -45.7728 -45.7501 -45.6001 -44.4872 -44.4573 -44.4452
    11.3063  12.7556  13.3966  13.8953  14.4473  14.5272  14.9273  15.2590
    15.9053  16.2204

     occupation numbers 
     1.0000   1.0000   1.0000   1.0000   1.0000   1.0000   1.0000   1.0000
     1.0000   1.0000   1.0000   1.0000   1.0000   1.0000   1.0000   1.0000
     1.0000   1.0000

          k = 0.4167-0.4330 0.1021 (   620 PWs)   bands (ev):

   -85.1974 -83.9141 -45.7650 -45.7104 -45.6040 -44.4659 -44.4555 -44.4251
    10.9173  11.9660  13.6082  13.9618  14.2925  14.3846  14.9376  15.3860
    15.6018  15.9078

     occupation numbers 
     1.0000   1.0000   1.0000   1.0000   1.0000   1.0000   1.0000   1.0000
     1.0000   1.0000   1.0000   1.0000   1.0000   1.0000   1.0000   1.0000
     1.0000   1.0000

          k = 0.4167-0.4330 0.5103 (   620 PWs)   bands (ev):

   -85.1861 -83.9023 -45.8462 -45.7310 -45.5945 -44.5465 -44.4486 -44.4463
    11.9037  12.8399  13.6648  13.8752  14.4306  14.6666  15.2334  15.5255
    16.0753  16.4444

     occupation numbers 
     1.0000   1.0000   1.0000   1.0000   1.0000   1.0000   1.0000   1.0000
     1.0000   1.0000   1.0000   1.0000   1.0000   1.0000   1.0000   1.0000
     1.0000   1.0000

          k = 0.4167-0.4330 0.9186 (   621 PWs)   bands (ev):

   -85.1780 -83.8938 -45.9025 -45.7474 -45.5849 -44.6083 -44.4656 -44.4408
    12.4584  12.9472  13.3897  14.3209  14.3894  14.9241  15.6159  15.8560
    16.2274  18.0138

     occupation numbers 
     1.0000   1.0000   1.0000   1.0000   1.0000   1.0000   1.0000   1.0000
     1.0000   1.0000   1.0000   1.0000   1.0000   1.0000   1.0000   1.0000
     1.0000   1.0000

          k = 0.4167-0.4330-1.1227 (   618 PWs)   bands (ev):

   -85.1810 -83.8969 -45.8821 -45.7413 -45.5887 -44.5856 -44.4591 -44.4428
    12.4244  12.7122  13.5569  14.2031  14.3921  14.7658  15.5493  15.8115
    16.2099  17.0662

     occupation numbers 
     1.0000   1.0000   1.0000   1.0000   1.0000   1.0000   1.0000   1.0000
     1.0000   1.0000   1.0000   1.0000   1.0000   1.0000   1.0000   1.0000
     1.0000   1.0000

          k = 0.4167-0.4330-0.7144 (   617 PWs)   bands (ev):

   -85.1921 -83.9086 -45.8035 -45.7194 -45.6002 -44.5017 -44.4530 -44.4351
    11.3061  12.7541  13.3808  13.9038  14.4427  14.5486  14.9213  15.2709
    15.9134  16.2275

     occupation numbers 
     1.0000   1.0000   1.0000   1.0000   1.0000   1.0000   1.0000   1.0000
     1.0000   1.0000   1.0000   1.0000   1.0000   1.0000   1.0000   1.0000
     1.0000   1.0000

          k = 0.4167-0.4330-0.3062 (   620 PWs)   bands (ev):

   -85.2005 -83.9174 -45.7409 -45.7067 -45.6059 -44.4650 -44.4353 -44.4219
    10.8864  11.2584  13.8469  13.9428  14.0941  14.5003  15.0538  15.3086
    15.5190  15.5571

     occupation numbers 
     1.0000   1.0000   1.0000   1.0000   1.0000   1.0000   1.0000   1.0000
     1.0000   1.0000   1.0000   1.0000   1.0000   1.0000   1.0000   1.0000
     1.0000   1.0000

     the Fermi energy is    19.0831 ev

!    total energy              =    -685.81028271 Ry
     estimated scf accuracy    <       0.00000009 Ry
     smearing contrib. (-TS)   =      -0.00000000 Ry
     internal energy E=F+TS    =    -685.81028271 Ry

     The total energy is F=E-TS. E is the sum of the following terms:
     one-electron contribution =    -381.73702531 Ry
     hartree contribution      =     214.63244386 Ry
     xc contribution           =     -70.54113612 Ry
     ewald contribution        =    -448.45217681 Ry
     Hubbard energy            =       0.28761168 Ry

     total magnetization       =     0.00 Bohr mag/cell
     absolute magnetization    =     2.04 Bohr mag/cell

     convergence has been achieved in  27 iterations

     Writing all to output data dir ./outputs/Ni.save/ :
     XML data file, charge density, pseudopotentials, collected wavefunctions
 
     init_run     :      0.48s CPU      0.50s WALL (       1 calls)
     electrons    :     17.03s CPU     17.28s WALL (       1 calls)

     Called by init_run:
     wfcinit      :      0.28s CPU      0.30s WALL (       1 calls)
     wfcinit:atom :      0.01s CPU      0.01s WALL (      54 calls)
     wfcinit:wfcr :      0.18s CPU      0.18s WALL (      54 calls)
     potinit      :      0.02s CPU      0.02s WALL (       1 calls)
     hinit0       :      0.17s CPU      0.17s WALL (       1 calls)

     Called by electrons:
     c_bands      :     14.21s CPU     14.42s WALL (      27 calls)
     sum_band     :      2.39s CPU      2.41s WALL (      27 calls)
     v_of_rho     :      0.25s CPU      0.25s WALL (      28 calls)
     v_h          :      0.00s CPU      0.00s WALL (      28 calls)
     v_xc         :      0.24s CPU      0.25s WALL (      28 calls)
     newd         :      0.14s CPU      0.14s WALL (      28 calls)
     mix_rho      :      0.04s CPU      0.04s WALL (      27 calls)

     Called by c_bands:
     init_us_2    :      0.35s CPU      0.35s WALL (    3024 calls)
     init_us_2:cp :      0.35s CPU      0.35s WALL (    3024 calls)
     cegterg      :     11.53s CPU     11.66s WALL (    1458 calls)

     Called by sum_band:
     sum_band:wei :      0.01s CPU      0.01s WALL (      27 calls)
     sum_band:loo :      1.86s CPU      1.88s WALL (      27 calls)
     sum_band:buf :      0.03s CPU      0.03s WALL (    1458 calls)
     sum_band:ini :      0.18s CPU      0.18s WALL (    1458 calls)
     sum_band:cal :      0.08s CPU      0.08s WALL (    1458 calls)
     sum_band:bec :      0.01s CPU      0.01s WALL (    1458 calls)
     addusdens    :      0.30s CPU      0.30s WALL (      27 calls)
                                        0.00s GPU  (      27 calls)
     addusd:skk   :      0.00s CPU      0.00s WALL (      54 calls)
                                        0.00s GPU  (      54 calls)

     Called by *egterg:
     cdiaghg      :      1.88s CPU      1.90s WALL (    7170 calls)
     cegterg:over :      0.45s CPU      0.46s WALL (    5712 calls)
     cegterg:upda :      0.21s CPU      0.21s WALL (    5712 calls)
     cegterg:last :      0.36s CPU      0.36s WALL (    3334 calls)
     h_psi        :      8.23s CPU      8.31s WALL (    7224 calls)
     s_psi        :      0.26s CPU      0.26s WALL (    7278 calls)
     g_psi        :      0.06s CPU      0.06s WALL (    5712 calls)

     Called by h_psi:
     h_psi:calbec :      0.30s CPU      0.30s WALL (    7224 calls)
     vloc_psi     :      7.34s CPU      7.41s WALL (    7224 calls)
     add_vuspsi   :      0.24s CPU      0.24s WALL (    7224 calls)
     vhpsi        :      0.28s CPU      0.28s WALL (    7224 calls)

     General routines
     calbec       :      0.57s CPU      0.57s WALL (   17418 calls)
     fft          :      0.03s CPU      0.03s WALL (     586 calls)
     ffts         :      0.00s CPU      0.00s WALL (      54 calls)
     fftw         :      6.44s CPU      6.51s WALL (  176472 calls)
 
     Parallel routines

     Hubbard U routines
     new_ns       :      0.09s CPU      0.09s WALL (      27 calls)
     vhpsi        :      0.28s CPU      0.28s WALL (    7224 calls)
 
     PWSCF        :     17.63s CPU     18.22s WALL

 
   This run was terminated on:  17:36:53  22May2025            

=------------------------------------------------------------------------------=
   JOB DONE.
=------------------------------------------------------------------------------=
