
     Program PWSCF v.7.3 starts on 22May2025 at 17:54: 0 
        Git branch: HEAD
        Last git commit: 86535f777cf6580630c3ad900c934576e98012c6
        Last git commit date: Fri Dec 15 21:03:38 2023 +0000
        Last git commit subject: Merge branch 'develop' into 'master'

     This program is part of the open-source Quantum ESPRESSO suite
     for quantum simulation of materials; please cite
         "P. Giannozzi et al., J. Phys.:Condens. Matter 21 395502 (2009);
         "P. Giannozzi et al., J. Phys.:Condens. Matter 29 465901 (2017);
         "P. Giannozzi et al., J. Chem. Phys. 152 154105 (2020);
          URL http://www.quantum-espresso.org", 
     in publications or presentations arising from this work. More details at
     http://www.quantum-espresso.org/quote

     Parallel version (MPI), running on     4 processors

     MPI processes distributed on     1 nodes
     31824 MiB available memory on the printing compute node when the environment starts
 
     Waiting for input...
     Reading input from standard input

     Current dimensions of program PWSCF are:
     Max number of different atomic species (ntypx) = 10
     Max number of k-points (npk) =  40000
     Max angular momentum in pseudopotentials (lmaxx) =  4
     Message from routine setup:
     using ibrav=0 with symmetry is DISCOURAGED, use correct ibrav instead
 
     K-points division:     npool     =       4
     Subspace diagonalization in iterative solution of the eigenvalue problem:
     a serial algorithm will be used

 
     G-vector sticks info
     --------------------
     sticks:   dense  smooth     PW     G-vecs:    dense   smooth      PW
     Sum         479     479    169                 4933     4933    1033
 
     Using Slab Decomposition
 


     bravais-lattice index     =            0
     lattice parameter (alat)  =       9.3691  a.u.
     unit-cell volume          =     145.3870 (a.u.)^3
     number of atoms/cell      =            2
     number of atomic types    =            2
     number of electrons       =        36.00
     number of Kohn-Sham states=           18
     kinetic-energy cutoff     =      40.0000  Ry
     charge density cutoff     =     160.0000  Ry
     scf convergence threshold =      1.0E-06
     mixing beta               =       0.7000
     number of iterations used =            8  plain     mixing
     energy convergence thresh.=      1.0E-04
     force convergence thresh. =      1.0E-03
     press convergence thresh. =      5.0E-01
     Exchange-correlation= SLA  PW   PSX  PSC
                           (   1   4  10   8   0   0   0)
     nstep                     =           50

     Hubbard projectors: ortho-atomic
     Hubbard parameters of DFT+U (Dudarev formulation) in eV:
     U(Ni-3d) =  4.0000
     U(Ni1-3d) =  4.0000

     Internal variables: lda_plus_u = T, lda_plus_u_kind = 0

     celldm(1)=   9.369149  celldm(2)=   0.000000  celldm(3)=   0.000000
     celldm(4)=   0.000000  celldm(5)=   0.000000  celldm(6)=   0.000000

     crystal axes: (cart. coord. in units of alat)
               a(1) = (   1.000000   0.000000   0.000000 )  
               a(2) = (   0.250000   0.433013   0.000000 )  
               a(3) = (   0.250000   0.144338   0.408248 )  

     reciprocal axes: (cart. coord. in units 2 pi/alat)
               b(1) = (  1.000000 -0.577350 -0.408248 )  
               b(2) = (  0.000000  2.309401 -0.816497 )  
               b(3) = (  0.000000  0.000000  2.449490 )  


     PseudoPot. # 1 for Ni read from file:
     ./Ni.UPF
     MD5 check sum: de937c0c8ae4b350e69c02b76d8a83cb
     Pseudo is Ultrasoft + core correction, Zval = 18.0
     Generated by new atomic code, or converted to UPF format
     Using radial grid of  865 points,  6 beta functions with: 
                l(1) =   0
                l(2) =   0
                l(3) =   1
                l(4) =   1
                l(5) =   2
                l(6) =   2
     Q(r) pseudized with 10 coefficients,  rinner =    0.980   0.980   0.980
                                                       0.980   0.980

     PseudoPot. # 2 for Ni read from file:
     ./Ni.UPF
     MD5 check sum: de937c0c8ae4b350e69c02b76d8a83cb
     Pseudo is Ultrasoft + core correction, Zval = 18.0
     Generated by new atomic code, or converted to UPF format
     Using radial grid of  865 points,  6 beta functions with: 
                l(1) =   0
                l(2) =   0
                l(3) =   1
                l(4) =   1
                l(5) =   2
                l(6) =   2
     Q(r) pseudized with 10 coefficients,  rinner =    0.980   0.980   0.980
                                                       0.980   0.980

     atomic species   valence    mass     pseudopotential
     Ni               18.00    58.69340     Ni( 1.00)
     Ni1              18.00    58.69340     Ni( 1.00)

     Starting magnetic structure 
     atomic species   magnetization
     Ni              0.100
     Ni1            -0.100

      4 Sym. Ops., with inversion, found


                                    s                        frac. trans.

      isym =  1     identity                                     

 cryst.   s( 1) = (     1          0          0      )
                  (     0          1          0      )
                  (     0          0          1      )

 cart.    s( 1) = (  1.0000000  0.0000000  0.0000000 )
                  (  0.0000000  1.0000000  0.0000000 )
                  (  0.0000000  0.0000000  1.0000000 )


      isym =  2     180 deg rotation - cryst. axis [1,1,0]       

 cryst.   s( 2) = (    -1          2          0      )
                  (     0          1          0      )
                  (     0          1         -1      )

 cart.    s( 2) = ( -0.5000000  0.8660254  0.0000000 )
                  (  0.8660254  0.5000000  0.0000000 )
                  (  0.0000000  0.0000000 -1.0000000 )


      isym =  3     inversion                                    

 cryst.   s( 3) = (    -1          0          0      )
                  (     0         -1          0      )
                  (     0          0         -1      )

 cart.    s( 3) = ( -1.0000000  0.0000000  0.0000000 )
                  (  0.0000000 -1.0000000  0.0000000 )
                  (  0.0000000  0.0000000 -1.0000000 )


      isym =  4     inv. 180 deg rotation - cryst. axis [1,1,0]  

 cryst.   s( 4) = (     1         -2          0      )
                  (     0         -1          0      )
                  (     0         -1          1      )

 cart.    s( 4) = (  0.5000000 -0.8660254 -0.0000000 )
                  ( -0.8660254 -0.5000000 -0.0000000 )
                  (  0.0000000  0.0000000  1.0000000 )


   Cartesian axes

     site n.     atom                  positions (alat units)
         1        Ni     tau(   1) = (   0.0000000   0.0000000   0.0000000  )
         2        Ni1    tau(   2) = (   0.5000000   0.0000000   0.0000000  )

   Crystallographic axes

     site n.     atom                  positions (cryst. coord.)
         1        Ni     tau(   1) = (  0.0000000  0.0000000  0.0000000  )
         2        Ni1    tau(   2) = (  0.5000000  0.0000000  0.0000000  )

     number of k points=   108  Gaussian smearing, width (Ry)=  0.0100
                       cart. coord. in units 2pi/alat
        k(    1) = (   0.0833333   0.1443376   0.1020621), wk =   0.0092593
        k(    2) = (   0.0833333   0.1443376   0.5103104), wk =   0.0092593
        k(    3) = (   0.0833333   0.1443376   0.9185587), wk =   0.0092593
        k(    4) = (   0.0833333   0.1443376  -1.1226828), wk =   0.0092593
        k(    5) = (   0.0833333   0.1443376  -0.7144345), wk =   0.0092593
        k(    6) = (   0.0833333   0.1443376  -0.3061862), wk =   0.0092593
        k(    7) = (   0.0833333   0.5292377  -0.0340207), wk =   0.0092593
        k(    8) = (   0.0833333   0.5292377   0.3742276), wk =   0.0092593
        k(    9) = (   0.0833333   0.5292377   0.7824759), wk =   0.0092593
        k(   10) = (   0.0833333   0.5292377  -1.2587656), wk =   0.0092593
        k(   11) = (   0.0833333   0.5292377  -0.8505173), wk =   0.0092593
        k(   12) = (   0.0833333   0.5292377  -0.4422690), wk =   0.0092593
        k(   13) = (   0.0833333   0.9141379  -0.1701035), wk =   0.0092593
        k(   14) = (   0.0833333   0.9141379   0.2381448), wk =   0.0092593
        k(   15) = (   0.0833333   0.9141379   0.6463931), wk =   0.0092593
        k(   16) = (   0.0833333   0.9141379  -1.3948483), wk =   0.0092593
        k(   17) = (   0.0833333   0.9141379  -0.9866000), wk =   0.0092593
        k(   18) = (   0.0833333   0.9141379  -0.5783517), wk =   0.0092593
        k(   19) = (   0.0833333  -1.0103630   0.5103104), wk =   0.0092593
        k(   20) = (   0.0833333  -1.0103630   0.9185587), wk =   0.0092593
        k(   21) = (   0.0833333  -1.0103630   1.3268069), wk =   0.0092593
        k(   22) = (   0.0833333  -1.0103630  -0.7144345), wk =   0.0092593
        k(   23) = (   0.0833333  -1.0103630  -0.3061862), wk =   0.0092593
        k(   24) = (   0.0833333  -1.0103630   0.1020621), wk =   0.0092593
        k(   25) = (   0.0833333  -0.6254628   0.3742276), wk =   0.0092593
        k(   26) = (   0.0833333  -0.6254628   0.7824759), wk =   0.0092593
        k(   27) = (   0.0833333  -0.6254628   1.1907242), wk =   0.0092593
        k(   28) = (   0.0833333  -0.6254628  -0.8505173), wk =   0.0092593
        k(   29) = (   0.0833333  -0.6254628  -0.4422690), wk =   0.0092593
        k(   30) = (   0.0833333  -0.6254628  -0.0340207), wk =   0.0092593
        k(   31) = (   0.0833333  -0.2405626   0.2381448), wk =   0.0092593
        k(   32) = (   0.0833333  -0.2405626   0.6463931), wk =   0.0092593
        k(   33) = (   0.0833333  -0.2405626   1.0546414), wk =   0.0092593
        k(   34) = (   0.0833333  -0.2405626  -0.9866000), wk =   0.0092593
        k(   35) = (   0.0833333  -0.2405626  -0.5783517), wk =   0.0092593
        k(   36) = (   0.0833333  -0.2405626  -0.1701035), wk =   0.0092593
        k(   37) = (   0.2500000   0.0481125   0.0340207), wk =   0.0092593
        k(   38) = (   0.2500000   0.0481125   0.4422690), wk =   0.0092593
        k(   39) = (   0.2500000   0.0481125   0.8505173), wk =   0.0092593
        k(   40) = (   0.2500000   0.0481125  -1.1907242), wk =   0.0092593
        k(   41) = (   0.2500000   0.0481125  -0.7824759), wk =   0.0092593
        k(   42) = (   0.2500000   0.0481125  -0.3742276), wk =   0.0092593
        k(   43) = (   0.2500000   0.4330127  -0.1020621), wk =   0.0092593
        k(   44) = (   0.2500000   0.4330127   0.3061862), wk =   0.0092593
        k(   45) = (   0.2500000   0.4330127   0.7144345), wk =   0.0092593
        k(   46) = (   0.2500000   0.4330127  -1.3268069), wk =   0.0092593
        k(   47) = (   0.2500000   0.4330127  -0.9185587), wk =   0.0092593
        k(   48) = (   0.2500000   0.4330127  -0.5103104), wk =   0.0092593
        k(   49) = (   0.2500000   0.8179129  -0.2381448), wk =   0.0092593
        k(   50) = (   0.2500000   0.8179129   0.1701035), wk =   0.0092593
        k(   51) = (   0.2500000   0.8179129   0.5783517), wk =   0.0092593
        k(   52) = (   0.2500000   0.8179129  -1.4628897), wk =   0.0092593
        k(   53) = (   0.2500000   0.8179129  -1.0546414), wk =   0.0092593
        k(   54) = (   0.2500000   0.8179129  -0.6463931), wk =   0.0092593
        k(   55) = (   0.2500000  -1.1065880   0.4422690), wk =   0.0092593
        k(   56) = (   0.2500000  -1.1065880   0.8505173), wk =   0.0092593
        k(   57) = (   0.2500000  -1.1065880   1.2587656), wk =   0.0092593
        k(   58) = (   0.2500000  -1.1065880  -0.7824759), wk =   0.0092593
        k(   59) = (   0.2500000  -1.1065880  -0.3742276), wk =   0.0092593
        k(   60) = (   0.2500000  -1.1065880   0.0340207), wk =   0.0092593
        k(   61) = (   0.2500000  -0.7216878   0.3061862), wk =   0.0092593
        k(   62) = (   0.2500000  -0.7216878   0.7144345), wk =   0.0092593
        k(   63) = (   0.2500000  -0.7216878   1.1226828), wk =   0.0092593
        k(   64) = (   0.2500000  -0.7216878  -0.9185587), wk =   0.0092593
        k(   65) = (   0.2500000  -0.7216878  -0.5103104), wk =   0.0092593
        k(   66) = (   0.2500000  -0.7216878  -0.1020621), wk =   0.0092593
        k(   67) = (   0.2500000  -0.3367877   0.1701035), wk =   0.0092593
        k(   68) = (   0.2500000  -0.3367877   0.5783517), wk =   0.0092593
        k(   69) = (   0.2500000  -0.3367877   0.9866000), wk =   0.0092593
        k(   70) = (   0.2500000  -0.3367877  -1.0546414), wk =   0.0092593
        k(   71) = (   0.2500000  -0.3367877  -0.6463931), wk =   0.0092593
        k(   72) = (   0.2500000  -0.3367877  -0.2381448), wk =   0.0092593
        k(   73) = (   0.4166667  -0.0481125  -0.0340207), wk =   0.0092593
        k(   74) = (   0.4166667  -0.0481125   0.3742276), wk =   0.0092593
        k(   75) = (   0.4166667  -0.0481125   0.7824759), wk =   0.0092593
        k(   76) = (   0.4166667  -0.0481125  -1.2587656), wk =   0.0092593
        k(   77) = (   0.4166667  -0.0481125  -0.8505173), wk =   0.0092593
        k(   78) = (   0.4166667  -0.0481125  -0.4422690), wk =   0.0092593
        k(   79) = (   0.4166667   0.3367877  -0.1701035), wk =   0.0092593
        k(   80) = (   0.4166667   0.3367877   0.2381448), wk =   0.0092593
        k(   81) = (   0.4166667   0.3367877   0.6463931), wk =   0.0092593
        k(   82) = (   0.4166667   0.3367877  -1.3948483), wk =   0.0092593
        k(   83) = (   0.4166667   0.3367877  -0.9866000), wk =   0.0092593
        k(   84) = (   0.4166667   0.3367877  -0.5783517), wk =   0.0092593
        k(   85) = (   0.4166667   0.7216878  -0.3061862), wk =   0.0092593
        k(   86) = (   0.4166667   0.7216878   0.1020621), wk =   0.0092593
        k(   87) = (   0.4166667   0.7216878   0.5103104), wk =   0.0092593
        k(   88) = (   0.4166667   0.7216878  -1.5309311), wk =   0.0092593
        k(   89) = (   0.4166667   0.7216878  -1.1226828), wk =   0.0092593
        k(   90) = (   0.4166667   0.7216878  -0.7144345), wk =   0.0092593
        k(   91) = (   0.4166667  -1.2028131   0.3742276), wk =   0.0092593
        k(   92) = (   0.4166667  -1.2028131   0.7824759), wk =   0.0092593
        k(   93) = (   0.4166667  -1.2028131   1.1907242), wk =   0.0092593
        k(   94) = (   0.4166667  -1.2028131  -0.8505173), wk =   0.0092593
        k(   95) = (   0.4166667  -1.2028131  -0.4422690), wk =   0.0092593
        k(   96) = (   0.4166667  -1.2028131  -0.0340207), wk =   0.0092593
        k(   97) = (   0.4166667  -0.8179129   0.2381448), wk =   0.0092593
        k(   98) = (   0.4166667  -0.8179129   0.6463931), wk =   0.0092593
        k(   99) = (   0.4166667  -0.8179129   1.0546414), wk =   0.0092593
        k(  100) = (   0.4166667  -0.8179129  -0.9866000), wk =   0.0092593
        k(  101) = (   0.4166667  -0.8179129  -0.5783517), wk =   0.0092593
        k(  102) = (   0.4166667  -0.8179129  -0.1701035), wk =   0.0092593
        k(  103) = (   0.4166667  -0.4330127   0.1020621), wk =   0.0092593
        k(  104) = (   0.4166667  -0.4330127   0.5103104), wk =   0.0092593
        k(  105) = (   0.4166667  -0.4330127   0.9185587), wk =   0.0092593
        k(  106) = (   0.4166667  -0.4330127  -1.1226828), wk =   0.0092593
        k(  107) = (   0.4166667  -0.4330127  -0.7144345), wk =   0.0092593
        k(  108) = (   0.4166667  -0.4330127  -0.3061862), wk =   0.0092593

                       cryst. coord.
        k(    1) = (   0.0833333   0.0833333   0.0833333), wk =   0.0092593
        k(    2) = (   0.0833333   0.0833333   0.2500000), wk =   0.0092593
        k(    3) = (   0.0833333   0.0833333   0.4166667), wk =   0.0092593
        k(    4) = (   0.0833333   0.0833333  -0.4166667), wk =   0.0092593
        k(    5) = (   0.0833333   0.0833333  -0.2500000), wk =   0.0092593
        k(    6) = (   0.0833333   0.0833333  -0.0833333), wk =   0.0092593
        k(    7) = (   0.0833333   0.2500000   0.0833333), wk =   0.0092593
        k(    8) = (   0.0833333   0.2500000   0.2500000), wk =   0.0092593
        k(    9) = (   0.0833333   0.2500000   0.4166667), wk =   0.0092593
        k(   10) = (   0.0833333   0.2500000  -0.4166667), wk =   0.0092593
        k(   11) = (   0.0833333   0.2500000  -0.2500000), wk =   0.0092593
        k(   12) = (   0.0833333   0.2500000  -0.0833333), wk =   0.0092593
        k(   13) = (   0.0833333   0.4166667   0.0833333), wk =   0.0092593
        k(   14) = (   0.0833333   0.4166667   0.2500000), wk =   0.0092593
        k(   15) = (   0.0833333   0.4166667   0.4166667), wk =   0.0092593
        k(   16) = (   0.0833333   0.4166667  -0.4166667), wk =   0.0092593
        k(   17) = (   0.0833333   0.4166667  -0.2500000), wk =   0.0092593
        k(   18) = (   0.0833333   0.4166667  -0.0833333), wk =   0.0092593
        k(   19) = (   0.0833333  -0.4166667   0.0833333), wk =   0.0092593
        k(   20) = (   0.0833333  -0.4166667   0.2500000), wk =   0.0092593
        k(   21) = (   0.0833333  -0.4166667   0.4166667), wk =   0.0092593
        k(   22) = (   0.0833333  -0.4166667  -0.4166667), wk =   0.0092593
        k(   23) = (   0.0833333  -0.4166667  -0.2500000), wk =   0.0092593
        k(   24) = (   0.0833333  -0.4166667  -0.0833333), wk =   0.0092593
        k(   25) = (   0.0833333  -0.2500000   0.0833333), wk =   0.0092593
        k(   26) = (   0.0833333  -0.2500000   0.2500000), wk =   0.0092593
        k(   27) = (   0.0833333  -0.2500000   0.4166667), wk =   0.0092593
        k(   28) = (   0.0833333  -0.2500000  -0.4166667), wk =   0.0092593
        k(   29) = (   0.0833333  -0.2500000  -0.2500000), wk =   0.0092593
        k(   30) = (   0.0833333  -0.2500000  -0.0833333), wk =   0.0092593
        k(   31) = (   0.0833333  -0.0833333   0.0833333), wk =   0.0092593
        k(   32) = (   0.0833333  -0.0833333   0.2500000), wk =   0.0092593
        k(   33) = (   0.0833333  -0.0833333   0.4166667), wk =   0.0092593
        k(   34) = (   0.0833333  -0.0833333  -0.4166667), wk =   0.0092593
        k(   35) = (   0.0833333  -0.0833333  -0.2500000), wk =   0.0092593
        k(   36) = (   0.0833333  -0.0833333  -0.0833333), wk =   0.0092593
        k(   37) = (   0.2500000   0.0833333   0.0833333), wk =   0.0092593
        k(   38) = (   0.2500000   0.0833333   0.2500000), wk =   0.0092593
        k(   39) = (   0.2500000   0.0833333   0.4166667), wk =   0.0092593
        k(   40) = (   0.2500000   0.0833333  -0.4166667), wk =   0.0092593
        k(   41) = (   0.2500000   0.0833333  -0.2500000), wk =   0.0092593
        k(   42) = (   0.2500000   0.0833333  -0.0833333), wk =   0.0092593
        k(   43) = (   0.2500000   0.2500000   0.0833333), wk =   0.0092593
        k(   44) = (   0.2500000   0.2500000   0.2500000), wk =   0.0092593
        k(   45) = (   0.2500000   0.2500000   0.4166667), wk =   0.0092593
        k(   46) = (   0.2500000   0.2500000  -0.4166667), wk =   0.0092593
        k(   47) = (   0.2500000   0.2500000  -0.2500000), wk =   0.0092593
        k(   48) = (   0.2500000   0.2500000  -0.0833333), wk =   0.0092593
        k(   49) = (   0.2500000   0.4166667   0.0833333), wk =   0.0092593
        k(   50) = (   0.2500000   0.4166667   0.2500000), wk =   0.0092593
        k(   51) = (   0.2500000   0.4166667   0.4166667), wk =   0.0092593
        k(   52) = (   0.2500000   0.4166667  -0.4166667), wk =   0.0092593
        k(   53) = (   0.2500000   0.4166667  -0.2500000), wk =   0.0092593
        k(   54) = (   0.2500000   0.4166667  -0.0833333), wk =   0.0092593
        k(   55) = (   0.2500000  -0.4166667   0.0833333), wk =   0.0092593
        k(   56) = (   0.2500000  -0.4166667   0.2500000), wk =   0.0092593
        k(   57) = (   0.2500000  -0.4166667   0.4166667), wk =   0.0092593
        k(   58) = (   0.2500000  -0.4166667  -0.4166667), wk =   0.0092593
        k(   59) = (   0.2500000  -0.4166667  -0.2500000), wk =   0.0092593
        k(   60) = (   0.2500000  -0.4166667  -0.0833333), wk =   0.0092593
        k(   61) = (   0.2500000  -0.2500000   0.0833333), wk =   0.0092593
        k(   62) = (   0.2500000  -0.2500000   0.2500000), wk =   0.0092593
        k(   63) = (   0.2500000  -0.2500000   0.4166667), wk =   0.0092593
        k(   64) = (   0.2500000  -0.2500000  -0.4166667), wk =   0.0092593
        k(   65) = (   0.2500000  -0.2500000  -0.2500000), wk =   0.0092593
        k(   66) = (   0.2500000  -0.2500000  -0.0833333), wk =   0.0092593
        k(   67) = (   0.2500000  -0.0833333   0.0833333), wk =   0.0092593
        k(   68) = (   0.2500000  -0.0833333   0.2500000), wk =   0.0092593
        k(   69) = (   0.2500000  -0.0833333   0.4166667), wk =   0.0092593
        k(   70) = (   0.2500000  -0.0833333  -0.4166667), wk =   0.0092593
        k(   71) = (   0.2500000  -0.0833333  -0.2500000), wk =   0.0092593
        k(   72) = (   0.2500000  -0.0833333  -0.0833333), wk =   0.0092593
        k(   73) = (   0.4166667   0.0833333   0.0833333), wk =   0.0092593
        k(   74) = (   0.4166667   0.0833333   0.2500000), wk =   0.0092593
        k(   75) = (   0.4166667   0.0833333   0.4166667), wk =   0.0092593
        k(   76) = (   0.4166667   0.0833333  -0.4166667), wk =   0.0092593
        k(   77) = (   0.4166667   0.0833333  -0.2500000), wk =   0.0092593
        k(   78) = (   0.4166667   0.0833333  -0.0833333), wk =   0.0092593
        k(   79) = (   0.4166667   0.2500000   0.0833333), wk =   0.0092593
        k(   80) = (   0.4166667   0.2500000   0.2500000), wk =   0.0092593
        k(   81) = (   0.4166667   0.2500000   0.4166667), wk =   0.0092593
        k(   82) = (   0.4166667   0.2500000  -0.4166667), wk =   0.0092593
        k(   83) = (   0.4166667   0.2500000  -0.2500000), wk =   0.0092593
        k(   84) = (   0.4166667   0.2500000  -0.0833333), wk =   0.0092593
        k(   85) = (   0.4166667   0.4166667   0.0833333), wk =   0.0092593
        k(   86) = (   0.4166667   0.4166667   0.2500000), wk =   0.0092593
        k(   87) = (   0.4166667   0.4166667   0.4166667), wk =   0.0092593
        k(   88) = (   0.4166667   0.4166667  -0.4166667), wk =   0.0092593
        k(   89) = (   0.4166667   0.4166667  -0.2500000), wk =   0.0092593
        k(   90) = (   0.4166667   0.4166667  -0.0833333), wk =   0.0092593
        k(   91) = (   0.4166667  -0.4166667   0.0833333), wk =   0.0092593
        k(   92) = (   0.4166667  -0.4166667   0.2500000), wk =   0.0092593
        k(   93) = (   0.4166667  -0.4166667   0.4166667), wk =   0.0092593
        k(   94) = (   0.4166667  -0.4166667  -0.4166667), wk =   0.0092593
        k(   95) = (   0.4166667  -0.4166667  -0.2500000), wk =   0.0092593
        k(   96) = (   0.4166667  -0.4166667  -0.0833333), wk =   0.0092593
        k(   97) = (   0.4166667  -0.2500000   0.0833333), wk =   0.0092593
        k(   98) = (   0.4166667  -0.2500000   0.2500000), wk =   0.0092593
        k(   99) = (   0.4166667  -0.2500000   0.4166667), wk =   0.0092593
        k(  100) = (   0.4166667  -0.2500000  -0.4166667), wk =   0.0092593
        k(  101) = (   0.4166667  -0.2500000  -0.2500000), wk =   0.0092593
        k(  102) = (   0.4166667  -0.2500000  -0.0833333), wk =   0.0092593
        k(  103) = (   0.4166667  -0.0833333   0.0833333), wk =   0.0092593
        k(  104) = (   0.4166667  -0.0833333   0.2500000), wk =   0.0092593
        k(  105) = (   0.4166667  -0.0833333   0.4166667), wk =   0.0092593
        k(  106) = (   0.4166667  -0.0833333  -0.4166667), wk =   0.0092593
        k(  107) = (   0.4166667  -0.0833333  -0.2500000), wk =   0.0092593
        k(  108) = (   0.4166667  -0.0833333  -0.0833333), wk =   0.0092593

     Dense  grid:     4933 G-vectors     FFT dimensions: (  40,  20,  20)

     Dynamical RAM for                 wfc:       0.17 MB

     Dynamical RAM for     wfc (w. buffer):       9.38 MB

     Dynamical RAM for             U proj.:       0.09 MB

     Dynamical RAM for  U proj. (w. buff.):       5.21 MB

     Dynamical RAM for           str. fact:       0.15 MB

     Dynamical RAM for           local pot:       0.00 MB

     Dynamical RAM for          nlocal pot:       0.34 MB

     Dynamical RAM for                qrad:       4.06 MB

     Dynamical RAM for          rho,v,vnew:       1.18 MB

     Dynamical RAM for               rhoin:       0.39 MB

     Dynamical RAM for            rho*nmix:       2.41 MB

     Dynamical RAM for           G-vectors:       0.32 MB

     Dynamical RAM for          h,s,v(r/c):       0.06 MB

     Dynamical RAM for          <psi|beta>:       0.01 MB

     Dynamical RAM for                 psi:       0.34 MB

     Dynamical RAM for                hpsi:       0.34 MB

     Dynamical RAM for                spsi:       0.34 MB

     Dynamical RAM for      wfcinit/wfcrot:       0.51 MB

     Dynamical RAM for           addusdens:       3.65 MB

     Dynamical RAM for          addusforce:       3.60 MB

     Dynamical RAM for         addusstress:       3.87 MB

     Estimated static dynamical RAM per process >      22.01 MB

     Estimated max dynamical RAM per process >      28.28 MB

     Estimated total dynamical RAM >     105.90 MB

     Check: negative core charge=   -0.000112
     Generating pointlists ...
     new r_m :   0.2063 (alat units)  1.9324 (a.u.) for type    1
     new r_m :   0.2063 (alat units)  1.9324 (a.u.) for type    2

     Initial potential from superposition of free atoms

     starting charge      32.0000, renormalised to      36.0000

     HUBBARD ENERGY =    0.3528  (Ry)

     STARTING HUBBARD OCCUPATIONS:

     =================== HUBBARD OCCUPATIONS ===================
     ------------------------ ATOM    1 ------------------------
     Tr[ns(  1)] (up, down, total) =   5.00000  3.00000  8.00000
     Atomic magnetic moment for atom   1 =   2.00000
     SPIN  1
     eigenvalues:
       1.000  1.000  1.000  1.000  1.000
     eigenvectors (columns):
       1.000  0.000  0.000  0.000  0.000
       0.000  1.000  0.000  0.000  0.000
       0.000  0.000  1.000  0.000  0.000
       0.000  0.000  0.000  1.000  0.000
       0.000  0.000  0.000  0.000  1.000
     occupation matrix ns (before diag.):
       1.000  0.000  0.000  0.000  0.000
       0.000  1.000  0.000  0.000  0.000
       0.000  0.000  1.000  0.000  0.000
       0.000  0.000  0.000  1.000  0.000
       0.000  0.000  0.000  0.000  1.000
     SPIN  2
     eigenvalues:
       0.600  0.600  0.600  0.600  0.600
     eigenvectors (columns):
       1.000  0.000  0.000  0.000  0.000
       0.000  1.000  0.000  0.000  0.000
       0.000  0.000  1.000  0.000  0.000
       0.000  0.000  0.000  1.000  0.000
       0.000  0.000  0.000  0.000  1.000
     occupation matrix ns (before diag.):
       0.600  0.000  0.000  0.000  0.000
       0.000  0.600  0.000  0.000  0.000
       0.000  0.000  0.600  0.000  0.000
       0.000  0.000  0.000  0.600  0.000
       0.000  0.000  0.000  0.000  0.600
     ------------------------ ATOM    2 ------------------------
     Tr[ns(  2)] (up, down, total) =   3.00000  5.00000  8.00000
     Atomic magnetic moment for atom   2 =  -2.00000
     SPIN  1
     eigenvalues:
       0.600  0.600  0.600  0.600  0.600
     eigenvectors (columns):
       1.000  0.000  0.000  0.000  0.000
       0.000  1.000  0.000  0.000  0.000
       0.000  0.000  1.000  0.000  0.000
       0.000  0.000  0.000  1.000  0.000
       0.000  0.000  0.000  0.000  1.000
     occupation matrix ns (before diag.):
       0.600  0.000  0.000  0.000  0.000
       0.000  0.600  0.000  0.000  0.000
       0.000  0.000  0.600  0.000  0.000
       0.000  0.000  0.000  0.600  0.000
       0.000  0.000  0.000  0.000  0.600
     SPIN  2
     eigenvalues:
       1.000  1.000  1.000  1.000  1.000
     eigenvectors (columns):
       1.000  0.000  0.000  0.000  0.000
       0.000  1.000  0.000  0.000  0.000
       0.000  0.000  1.000  0.000  0.000
       0.000  0.000  0.000  1.000  0.000
       0.000  0.000  0.000  0.000  1.000
     occupation matrix ns (before diag.):
       1.000  0.000  0.000  0.000  0.000
       0.000  1.000  0.000  0.000  0.000
       0.000  0.000  1.000  0.000  0.000
       0.000  0.000  0.000  1.000  0.000
       0.000  0.000  0.000  0.000  1.000

     Number of occupied Hubbard levels =   16.0000

     Atomic wfc used for Hubbard projectors are orthogonalized

     Starting wfcs are   26 randomized atomic wfcs

     total cpu time spent up to now is        0.9 secs

     per-process dynamical memory:    58.8 Mb

     Self-consistent Calculation

     iteration #  1     ecut=    40.00 Ry     beta= 0.70
     Davidson diagonalization with overlap

---- Real-time Memory Report at c_bands before calling an iterative solver
           118 MiB given to the printing process from OS
            57 MiB allocation reported by mallinfo(arena+hblkhd)
         31677 MiB available memory on the node where the printing process lives
------------------
     ethr =  1.00E-02,  avg # of iterations =  3.1

     =================== HUBBARD OCCUPATIONS ===================
     ------------------------ ATOM    1 ------------------------
     Tr[ns(  1)] (up, down, total) =   3.03310  1.56900  4.60210
     Atomic magnetic moment for atom   1 =   1.46411
     SPIN  1
     eigenvalues:
       0.560  0.560  0.628  0.642  0.644
     eigenvectors (columns):
      -0.000  0.746  0.193  0.000 -0.638
       0.016  0.570 -0.313  0.500  0.572
       0.028 -0.329  0.181  0.866 -0.330
       0.866 -0.051 -0.456 -0.028 -0.198
       0.500  0.089  0.790 -0.016  0.343
     occupation matrix ns (before diag.):
       0.597 -0.035  0.020  0.005 -0.008
      -0.035  0.614  0.016 -0.001 -0.001
       0.020  0.016  0.633 -0.002 -0.001
       0.005 -0.001 -0.002  0.577 -0.030
      -0.008 -0.001 -0.001 -0.030  0.612
     SPIN  2
     eigenvalues:
       0.282  0.282  0.283  0.358  0.363
     eigenvectors (columns):
       0.877 -0.000  0.019  0.000 -0.481
       0.303  0.037 -0.616  0.499  0.528
      -0.175  0.064  0.356  0.864 -0.305
      -0.165 -0.864 -0.351  0.064 -0.315
       0.286 -0.499  0.608  0.037  0.546
     occupation matrix ns (before diag.):
       0.301 -0.021  0.012  0.012 -0.021
      -0.021  0.324  0.019 -0.011  0.024
       0.012  0.019  0.346  0.012 -0.011
       0.012 -0.011  0.012  0.291 -0.014
      -0.021  0.024 -0.011 -0.014  0.307
     ------------------------ ATOM    2 ------------------------
     Tr[ns(  2)] (up, down, total) =   1.56582  3.02930  4.59511
     Atomic magnetic moment for atom   2 =  -1.46348
     SPIN  1
     eigenvalues:
       0.281  0.281  0.283  0.359  0.362
     eigenvectors (columns):
       0.882  0.000 -0.047  0.000 -0.468
       0.248  0.039 -0.637  0.498  0.532
      -0.143  0.068  0.368  0.863 -0.307
      -0.186 -0.863 -0.338  0.068 -0.318
       0.323 -0.498  0.586  0.039  0.550
     occupation matrix ns (before diag.):
       0.299 -0.020  0.012  0.012 -0.021
      -0.020  0.324  0.020 -0.011  0.024
       0.012  0.020  0.347  0.012 -0.011
       0.012 -0.011  0.012  0.290 -0.015
      -0.021  0.024 -0.011 -0.015  0.306
     SPIN  2
     eigenvalues:
       0.558  0.560  0.628  0.641  0.642
     eigenvectors (columns):
      -0.000  0.759  0.140  0.636  0.000
       0.018  0.553 -0.301 -0.594 -0.500
       0.031 -0.320  0.174  0.343 -0.865
       0.865 -0.062 -0.463  0.177  0.031
       0.500  0.108  0.803 -0.307  0.018
     occupation matrix ns (before diag.):
       0.594 -0.034  0.019  0.005 -0.008
      -0.034  0.615  0.015 -0.000 -0.002
       0.019  0.015  0.633 -0.003 -0.000
       0.005 -0.000 -0.003  0.576 -0.030
      -0.008 -0.002 -0.000 -0.030  0.611

     Number of occupied Hubbard levels =    9.1972

     HUBBARD ENERGY =    0.6629  (Ry)

     total cpu time spent up to now is        1.7 secs

     total energy              =    -653.84823064 Ry
     estimated scf accuracy    <      57.93219542 Ry

     total magnetization       =     0.00 Bohr mag/cell
     absolute magnetization    =     3.08 Bohr mag/cell

     iteration #  2     ecut=    40.00 Ry     beta= 0.70
     Davidson diagonalization with overlap

---- Real-time Memory Report at c_bands before calling an iterative solver
           126 MiB given to the printing process from OS
            63 MiB allocation reported by mallinfo(arena+hblkhd)
         31654 MiB available memory on the node where the printing process lives
------------------
     ethr =  1.00E-02,  avg # of iterations =  4.8

     =================== HUBBARD OCCUPATIONS ===================
     ------------------------ ATOM    1 ------------------------
     Tr[ns(  1)] (up, down, total) =   4.66120  4.65994  9.32115
     Atomic magnetic moment for atom   1 =   0.00126
     SPIN  1
     eigenvalues:
       0.930  0.930  0.933  0.933  0.934
     eigenvectors (columns):
       0.066  0.000 -0.899  0.000 -0.433
       0.715  0.389 -0.168 -0.314  0.458
      -0.413  0.675  0.097 -0.543 -0.265
      -0.280  0.543 -0.196  0.675  0.365
       0.485  0.314  0.340  0.389 -0.632
     occupation matrix ns (before diag.):
       0.934 -0.000  0.000  0.000 -0.000
      -0.000  0.931  0.000  0.000 -0.002
       0.000  0.000  0.931 -0.002  0.000
       0.000  0.000 -0.002  0.932 -0.000
      -0.000 -0.002  0.000 -0.000  0.933
     SPIN  2
     eigenvalues:
       0.930  0.930  0.933  0.933  0.933
     eigenvectors (columns):
       0.000 -0.071 -0.356  0.932  0.000
      -0.387 -0.718  0.468  0.124 -0.317
      -0.670  0.415 -0.270 -0.072 -0.548
      -0.548  0.277  0.381  0.167  0.670
      -0.317 -0.480 -0.660 -0.289  0.387
     occupation matrix ns (before diag.):
       0.933 -0.000  0.000  0.000 -0.000
      -0.000  0.931  0.000 -0.000 -0.001
       0.000  0.000  0.931 -0.002 -0.000
       0.000 -0.000 -0.002  0.932 -0.000
      -0.000 -0.001 -0.000 -0.000  0.932
     ------------------------ ATOM    2 ------------------------
     Tr[ns(  2)] (up, down, total) =   4.65098  4.66081  9.31179
     Atomic magnetic moment for atom   2 =  -0.00983
     SPIN  1
     eigenvalues:
       0.926  0.929  0.931  0.932  0.933
     eigenvectors (columns):
       0.611  0.000 -0.719  0.000  0.331
      -0.432  0.471 -0.584 -0.167 -0.472
       0.249  0.816  0.337 -0.289  0.272
       0.308  0.289  0.084  0.816 -0.385
      -0.533  0.167 -0.145  0.471  0.667
     occupation matrix ns (before diag.):
       0.929  0.001 -0.001 -0.001  0.002
       0.001  0.930 -0.000  0.001 -0.002
      -0.001 -0.000  0.930 -0.001  0.001
      -0.001  0.001 -0.001  0.931  0.001
       0.002 -0.002  0.001  0.001  0.931
     SPIN  2
     eigenvalues:
       0.930  0.930  0.933  0.933  0.934
     eigenvectors (columns):
      -0.000  0.056 -0.000  0.918 -0.393
       0.390  0.712 -0.313  0.157  0.467
       0.675 -0.411 -0.542 -0.090 -0.269
       0.542 -0.283  0.675  0.177  0.373
       0.313  0.490  0.390 -0.306 -0.645
     occupation matrix ns (before diag.):
       0.933 -0.000  0.000  0.000 -0.000
      -0.000  0.931  0.000  0.000 -0.002
       0.000  0.000  0.931 -0.002  0.000
       0.000  0.000 -0.002  0.932 -0.000
      -0.000 -0.002  0.000 -0.000  0.932

     Number of occupied Hubbard levels =   18.6329

     HUBBARD ENERGY =    0.6657  (Ry)

     total cpu time spent up to now is        2.5 secs

     total energy              =    -679.75999209 Ry
     estimated scf accuracy    <      73.66840867 Ry

     total magnetization       =     0.00 Bohr mag/cell
     absolute magnetization    =     0.03 Bohr mag/cell

     iteration #  3     ecut=    40.00 Ry     beta= 0.70
     Davidson diagonalization with overlap

---- Real-time Memory Report at c_bands before calling an iterative solver
           128 MiB given to the printing process from OS
            64 MiB allocation reported by mallinfo(arena+hblkhd)
         31654 MiB available memory on the node where the printing process lives
------------------
     ethr =  1.00E-02,  avg # of iterations =  3.1

     =================== HUBBARD OCCUPATIONS ===================
     ------------------------ ATOM    1 ------------------------
     Tr[ns(  1)] (up, down, total) =   4.91378  4.86004  9.77383
     Atomic magnetic moment for atom   1 =   0.05374
     SPIN  1
     eigenvalues:
       0.981  0.981  0.981  0.986  0.986
     eigenvectors (columns):
       0.958  0.000  0.287  0.008  0.000
       0.155 -0.281 -0.498 -0.691 -0.413
      -0.090 -0.487  0.287  0.399 -0.716
       0.112  0.716 -0.383  0.301 -0.487
      -0.194  0.413  0.664 -0.521 -0.281
     occupation matrix ns (before diag.):
       0.981 -0.000  0.000 -0.000  0.000
      -0.000  0.984  0.000  0.000  0.002
       0.000  0.000  0.984  0.002  0.000
      -0.000  0.000  0.002  0.982 -0.000
       0.000  0.002  0.000 -0.000  0.983
     SPIN  2
     eigenvalues:
       0.965  0.968  0.972  0.977  0.978
     eigenvectors (columns):
       0.803  0.000  0.302 -0.514 -0.000
       0.509 -0.089 -0.472  0.517  0.492
      -0.294 -0.155  0.273 -0.299  0.852
      -0.050  0.852 -0.391 -0.308  0.155
       0.087  0.492  0.677  0.533  0.089
     occupation matrix ns (before diag.):
       0.969 -0.004  0.002  0.001 -0.002
      -0.004  0.973  0.003  0.000  0.001
       0.002  0.003  0.976  0.002  0.000
       0.001  0.000  0.002  0.970 -0.002
      -0.002  0.001  0.000 -0.002  0.973
     ------------------------ ATOM    2 ------------------------
     Tr[ns(  2)] (up, down, total) =   4.86127  4.91560  9.77687
     Atomic magnetic moment for atom   2 =  -0.05433
     SPIN  1
     eigenvalues:
       0.966  0.970  0.973  0.975  0.978
     eigenvectors (columns):
       0.925  0.000  0.379 -0.017 -0.000
       0.215 -0.193 -0.552 -0.632  0.461
      -0.124 -0.335  0.319  0.365  0.799
       0.144  0.799 -0.335  0.342  0.335
      -0.249  0.461  0.581 -0.592  0.193
     occupation matrix ns (before diag.):
       0.967 -0.001  0.001 -0.001  0.002
      -0.001  0.974  0.001  0.001  0.002
       0.001  0.001  0.976  0.002  0.001
      -0.001  0.001  0.002  0.972 -0.001
       0.002  0.002  0.001 -0.001  0.973
     SPIN  2
     eigenvalues:
       0.981  0.981  0.981  0.986  0.986
     eigenvectors (columns):
       0.958 -0.000  0.288 -0.000  0.010
       0.136  0.286 -0.477  0.410  0.710
      -0.078  0.496  0.276  0.710 -0.410
       0.121 -0.710 -0.392  0.496 -0.287
      -0.209 -0.410  0.678  0.286  0.496
     occupation matrix ns (before diag.):
       0.981 -0.000  0.000 -0.000  0.000
      -0.000  0.985 -0.000  0.000  0.002
       0.000 -0.000  0.984  0.002  0.000
      -0.000  0.000  0.002  0.983 -0.000
       0.000  0.002  0.000 -0.000  0.983

     Number of occupied Hubbard levels =   19.5507

     HUBBARD ENERGY =    0.5690  (Ry)

     total cpu time spent up to now is        3.1 secs

     total energy              =    -684.88124356 Ry
     estimated scf accuracy    <       6.77980879 Ry

     total magnetization       =    -0.00 Bohr mag/cell
     absolute magnetization    =     0.19 Bohr mag/cell

     iteration #  4     ecut=    40.00 Ry     beta= 0.70
     Davidson diagonalization with overlap

---- Real-time Memory Report at c_bands before calling an iterative solver
           128 MiB given to the printing process from OS
            64 MiB allocation reported by mallinfo(arena+hblkhd)
         31648 MiB available memory on the node where the printing process lives
------------------
     ethr =  1.00E-02,  avg # of iterations =  3.5

     =================== HUBBARD OCCUPATIONS ===================
     ------------------------ ATOM    1 ------------------------
     Tr[ns(  1)] (up, down, total) =   4.69593  4.14912  8.84505
     Atomic magnetic moment for atom   1 =   0.54682
     SPIN  1
     eigenvalues:
       0.921  0.924  0.940  0.955  0.955
     eigenvectors (columns):
       0.000 -0.809 -0.335 -0.484  0.000
       0.027 -0.507  0.460  0.530 -0.499
       0.046  0.293 -0.265 -0.306 -0.865
      -0.865  0.026  0.389 -0.313 -0.046
      -0.499 -0.045 -0.674  0.542 -0.027
     occupation matrix ns (before diag.):
       0.933 -0.010  0.006  0.003 -0.004
      -0.010  0.944  0.007 -0.001  0.004
       0.006  0.007  0.952  0.003 -0.001
       0.003 -0.001  0.003  0.928 -0.010
      -0.004  0.004 -0.001 -0.010  0.940
     SPIN  2
     eigenvalues:
       0.761  0.761  0.872  0.873  0.882
     eigenvectors (columns):
       0.808  0.000 -0.265  0.000  0.527
       0.508 -0.088  0.232 -0.492 -0.662
      -0.293 -0.153 -0.134 -0.852  0.382
      -0.031  0.852 -0.463 -0.153 -0.186
       0.053  0.492  0.802 -0.088  0.322
     occupation matrix ns (before diag.):
       0.802 -0.049  0.028  0.002 -0.003
      -0.049  0.847  0.013  0.011 -0.000
       0.028  0.013  0.862  0.013  0.011
       0.002  0.011  0.013  0.792 -0.047
      -0.003 -0.000  0.011 -0.047  0.846
     ------------------------ ATOM    2 ------------------------
     Tr[ns(  2)] (up, down, total) =   4.13257  4.68854  8.82111
     Atomic magnetic moment for atom   2 =  -0.55597
     SPIN  1
     eigenvalues:
       0.756  0.757  0.867  0.871  0.881
     eigenvectors (columns):
      -0.000  0.835 -0.335  0.000  0.436
      -0.096  0.476  0.410 -0.491 -0.596
      -0.166 -0.275 -0.237 -0.850  0.344
       0.850 -0.012 -0.407 -0.166 -0.290
       0.491  0.021  0.705 -0.096  0.502
     occupation matrix ns (before diag.):
       0.793 -0.047  0.027 -0.001  0.001
      -0.047  0.847  0.011  0.013 -0.000
       0.027  0.011  0.860  0.014  0.013
      -0.001  0.013  0.014  0.788 -0.048
       0.001 -0.000  0.013 -0.048  0.844
     SPIN  2
     eigenvalues:
       0.920  0.923  0.938  0.954  0.954
     eigenvectors (columns):
       0.000 -0.802 -0.334 -0.495  0.000
       0.023 -0.516  0.437  0.541 -0.499
       0.039  0.298 -0.252 -0.312 -0.865
      -0.865  0.021  0.398 -0.302 -0.039
      -0.499 -0.036 -0.689  0.523 -0.023
     occupation matrix ns (before diag.):
       0.932 -0.011  0.006  0.003 -0.004
      -0.011  0.943  0.007 -0.002  0.004
       0.006  0.007  0.950  0.003 -0.002
       0.003 -0.002  0.003  0.926 -0.011
      -0.004  0.004 -0.002 -0.011  0.938

     Number of occupied Hubbard levels =   17.6662

     HUBBARD ENERGY =    0.4231  (Ry)

     total cpu time spent up to now is        3.7 secs

     total energy              =    -685.79699875 Ry
     estimated scf accuracy    <       0.29826484 Ry

     total magnetization       =    -0.00 Bohr mag/cell
     absolute magnetization    =     1.15 Bohr mag/cell

     iteration #  5     ecut=    40.00 Ry     beta= 0.70
     Davidson diagonalization with overlap

---- Real-time Memory Report at c_bands before calling an iterative solver
           129 MiB given to the printing process from OS
            64 MiB allocation reported by mallinfo(arena+hblkhd)
         31648 MiB available memory on the node where the printing process lives
------------------
     ethr =  8.29E-04,  avg # of iterations =  2.4

     =================== HUBBARD OCCUPATIONS ===================
     ------------------------ ATOM    1 ------------------------
     Tr[ns(  1)] (up, down, total) =   4.67291  4.05489  8.72780
     Atomic magnetic moment for atom   1 =   0.61801
     SPIN  1
     eigenvalues:
       0.919  0.920  0.934  0.949  0.950
     eigenvectors (columns):
      -0.000  0.829  0.314  0.000 -0.462
      -0.036  0.481 -0.478  0.499  0.538
      -0.062 -0.278  0.276  0.864 -0.311
       0.864 -0.030 -0.386  0.062 -0.316
       0.499  0.052  0.669  0.036  0.548
     occupation matrix ns (before diag.):
       0.928 -0.010  0.006  0.003 -0.005
      -0.010  0.939  0.006 -0.002  0.005
       0.006  0.006  0.946  0.003 -0.002
       0.003 -0.002  0.003  0.925 -0.009
      -0.005  0.005 -0.002 -0.009  0.935
     SPIN  2
     eigenvalues:
       0.731  0.732  0.857  0.861  0.875
     eigenvectors (columns):
       0.831 -0.000  0.000 -0.360  0.424
       0.480  0.111  0.487  0.424 -0.583
      -0.277  0.193  0.844 -0.245  0.337
      -0.017 -0.844  0.193 -0.397 -0.303
       0.030 -0.487  0.111  0.688  0.525
     occupation matrix ns (before diag.):
       0.773 -0.055  0.032  0.000 -0.000
      -0.055  0.833  0.010  0.015  0.001
       0.032  0.010  0.845  0.018  0.015
       0.000  0.015  0.018  0.770 -0.055
      -0.000  0.001  0.015 -0.055  0.834
     ------------------------ ATOM    2 ------------------------
     Tr[ns(  2)] (up, down, total) =   4.11342  4.70848  8.82190
     Atomic magnetic moment for atom   2 =  -0.59507
     SPIN  1
     eigenvalues:
       0.742  0.747  0.866  0.869  0.890
     eigenvectors (columns):
       0.835  0.000 -0.384 -0.000 -0.394
       0.475 -0.106  0.468  0.489  0.552
      -0.274 -0.183 -0.270  0.847 -0.319
      -0.016  0.847 -0.374  0.183  0.331
       0.028  0.489  0.648  0.106 -0.574
     occupation matrix ns (before diag.):
       0.783 -0.055  0.031 -0.001  0.002
      -0.055  0.845  0.011  0.016 -0.003
       0.031  0.011  0.857  0.016  0.016
      -0.001  0.016  0.016  0.783 -0.054
       0.002 -0.003  0.016 -0.054  0.845
     SPIN  2
     eigenvalues:
       0.926  0.928  0.942  0.956  0.956
     eigenvectors (columns):
      -0.000  0.813  0.335  0.000 -0.475
      -0.025  0.503 -0.444  0.499  0.547
      -0.043 -0.290  0.256  0.865 -0.316
       0.865 -0.016 -0.395  0.043 -0.306
       0.499  0.027  0.684  0.025  0.530
     occupation matrix ns (before diag.):
       0.936 -0.009  0.005  0.002 -0.004
      -0.009  0.946  0.006 -0.002  0.004
       0.005  0.006  0.953  0.002 -0.002
       0.002 -0.002  0.002  0.931 -0.009
      -0.004  0.004 -0.002 -0.009  0.942

     Number of occupied Hubbard levels =   17.5497

     HUBBARD ENERGY =    0.3693  (Ry)

     total cpu time spent up to now is        4.2 secs

     total energy              =    -685.76546553 Ry
     estimated scf accuracy    <       0.26751168 Ry

     total magnetization       =     0.00 Bohr mag/cell
     absolute magnetization    =     1.26 Bohr mag/cell

     iteration #  6     ecut=    40.00 Ry     beta= 0.70
     Davidson diagonalization with overlap

---- Real-time Memory Report at c_bands before calling an iterative solver
           130 MiB given to the printing process from OS
            65 MiB allocation reported by mallinfo(arena+hblkhd)
         31647 MiB available memory on the node where the printing process lives
------------------
     ethr =  7.43E-04,  avg # of iterations =  3.1

     =================== HUBBARD OCCUPATIONS ===================
     ------------------------ ATOM    1 ------------------------
     Tr[ns(  1)] (up, down, total) =   4.73091  4.07066  8.80157
     Atomic magnetic moment for atom   1 =   0.66025
     SPIN  1
     eigenvalues:
       0.937  0.937  0.942  0.957  0.958
     eigenvectors (columns):
      -0.000  0.862  0.369  0.348  0.000
      -0.106  0.433 -0.434 -0.612 -0.489
      -0.184 -0.250  0.251  0.353 -0.846
       0.846  0.043 -0.391  0.308 -0.184
       0.489 -0.075  0.678 -0.534 -0.106
     occupation matrix ns (before diag.):
       0.940 -0.005  0.003  0.002 -0.003
      -0.005  0.950  0.004 -0.001  0.006
       0.003  0.004  0.955  0.005 -0.001
       0.002 -0.001  0.005  0.940 -0.004
      -0.003  0.006 -0.001 -0.004  0.945
     SPIN  2
     eigenvalues:
       0.726  0.730  0.862  0.864  0.887
     eigenvectors (columns):
      -0.835 -0.000  0.000 -0.396 -0.382
      -0.476  0.118  0.486  0.485  0.537
       0.275  0.205  0.841 -0.280 -0.310
       0.016 -0.841  0.205 -0.364  0.342
      -0.028 -0.486  0.118  0.630 -0.593
     occupation matrix ns (before diag.):
       0.772 -0.060  0.034 -0.001  0.002
      -0.060  0.837  0.010  0.018 -0.002
       0.034  0.010  0.849  0.020  0.018
      -0.001  0.018  0.020  0.772 -0.060
       0.002 -0.002  0.018 -0.060  0.841
     ------------------------ ATOM    2 ------------------------
     Tr[ns(  2)] (up, down, total) =   3.84192  4.60978  8.45170
     Atomic magnetic moment for atom   2 =  -0.76785
     SPIN  1
     eigenvalues:
       0.650  0.657  0.830  0.832  0.872
     eigenvectors (columns):
       0.885  0.000 -0.335 -0.000 -0.324
       0.401 -0.160  0.610  0.474  0.466
      -0.232 -0.278 -0.352  0.820 -0.269
       0.024  0.820 -0.313  0.278  0.389
      -0.041  0.474  0.542  0.160 -0.674
     occupation matrix ns (before diag.):
       0.693 -0.070  0.041 -0.009  0.016
      -0.070  0.806  0.005  0.029  0.003
       0.041  0.005  0.812  0.036  0.029
      -0.009  0.029  0.036  0.720 -0.078
       0.016  0.003  0.029 -0.078  0.810
     SPIN  2
     eigenvalues:
       0.906  0.910  0.917  0.937  0.940
     eigenvectors (columns):
       0.000  0.858 -0.230 -0.000  0.458
       0.033  0.432  0.504 -0.499 -0.556
       0.058 -0.250 -0.291 -0.864  0.321
      -0.864 -0.059  0.390 -0.058  0.307
      -0.499  0.103 -0.675 -0.033 -0.532
     occupation matrix ns (before diag.):
       0.916 -0.009  0.005  0.004 -0.006
      -0.009  0.928  0.005 -0.003  0.007
       0.005  0.005  0.934  0.004 -0.003
       0.004 -0.003  0.004  0.911 -0.008
      -0.006  0.007 -0.003 -0.008  0.921

     Number of occupied Hubbard levels =   17.2533

     HUBBARD ENERGY =    0.3328  (Ry)

     total cpu time spent up to now is        4.8 secs

     total energy              =    -685.77189714 Ry
     estimated scf accuracy    <       0.12239813 Ry

     total magnetization       =     0.00 Bohr mag/cell
     absolute magnetization    =     1.50 Bohr mag/cell

     iteration #  7     ecut=    40.00 Ry     beta= 0.70
     Davidson diagonalization with overlap

---- Real-time Memory Report at c_bands before calling an iterative solver
           130 MiB given to the printing process from OS
            65 MiB allocation reported by mallinfo(arena+hblkhd)
         31646 MiB available memory on the node where the printing process lives
------------------
     ethr =  3.40E-04,  avg # of iterations =  3.4

     =================== HUBBARD OCCUPATIONS ===================
     ------------------------ ATOM    1 ------------------------
     Tr[ns(  1)] (up, down, total) =   4.65619  3.86681  8.52299
     Atomic magnetic moment for atom   1 =   0.78938
     SPIN  1
     eigenvalues:
       0.919  0.920  0.925  0.946  0.946
     eigenvectors (columns):
       0.863 -0.000  0.337  0.000 -0.378
       0.437  0.099 -0.460  0.490  0.589
      -0.253  0.171  0.265  0.849 -0.340
       0.014 -0.849 -0.389  0.171 -0.314
      -0.025 -0.490  0.674  0.099  0.544
     occupation matrix ns (before diag.):
       0.924 -0.007  0.004  0.003 -0.004
      -0.007  0.936  0.005 -0.002  0.008
       0.004  0.005  0.942  0.006 -0.002
       0.003 -0.002  0.006  0.924 -0.005
      -0.004  0.008 -0.002 -0.005  0.930
     SPIN  2
     eigenvalues:
       0.651  0.653  0.843  0.847  0.874
     eigenvectors (columns):
       0.874 -0.000  0.000 -0.357  0.330
       0.420  0.158  0.474  0.596 -0.468
      -0.242  0.274  0.822 -0.344  0.270
       0.017 -0.822  0.274 -0.316 -0.387
      -0.030 -0.474  0.158  0.547  0.670
     occupation matrix ns (before diag.):
       0.700 -0.076  0.044 -0.006  0.011
      -0.076  0.812  0.007  0.028  0.008
       0.044  0.007  0.820  0.041  0.028
      -0.006  0.028  0.041  0.720 -0.083
       0.011  0.008  0.028 -0.083  0.815
     ------------------------ ATOM    2 ------------------------
     Tr[ns(  2)] (up, down, total) =   3.85595  4.63771  8.49366
     Atomic magnetic moment for atom   2 =  -0.78176
     SPIN  1
     eigenvalues:
       0.648  0.655  0.837  0.840  0.877
     eigenvectors (columns):
       0.886  0.000 -0.329 -0.000 -0.328
       0.399 -0.159  0.610  0.474  0.467
      -0.231 -0.275 -0.352  0.821 -0.270
       0.027  0.821 -0.315  0.275  0.388
      -0.046  0.474  0.545  0.159 -0.672
     occupation matrix ns (before diag.):
       0.693 -0.073  0.042 -0.010  0.017
      -0.073  0.811  0.006  0.029  0.005
       0.042  0.006  0.818  0.039  0.029
      -0.010  0.029  0.039  0.720 -0.081
       0.017  0.005  0.029 -0.081  0.814
     SPIN  2
     eigenvalues:
       0.915  0.915  0.921  0.942  0.944
     eigenvectors (columns):
       0.853 -0.000  0.338  0.000 -0.397
       0.451  0.079 -0.455  0.494  0.583
      -0.261  0.138  0.262  0.855 -0.336
       0.009 -0.855 -0.391  0.138 -0.312
      -0.016 -0.494  0.677  0.079  0.540
     occupation matrix ns (before diag.):
       0.920 -0.008  0.004  0.003 -0.005
      -0.008  0.933  0.005 -0.002  0.008
       0.004  0.005  0.939  0.006 -0.002
       0.003 -0.002  0.006  0.920 -0.006
      -0.005  0.008 -0.002 -0.006  0.927

     Number of occupied Hubbard levels =   17.0166

     HUBBARD ENERGY =    0.3331  (Ry)

     total cpu time spent up to now is        5.4 secs

     total energy              =    -685.79467784 Ry
     estimated scf accuracy    <       0.01407556 Ry

     total magnetization       =    -0.00 Bohr mag/cell
     absolute magnetization    =     1.62 Bohr mag/cell

     iteration #  8     ecut=    40.00 Ry     beta= 0.70
     Davidson diagonalization with overlap

---- Real-time Memory Report at c_bands before calling an iterative solver
           131 MiB given to the printing process from OS
            65 MiB allocation reported by mallinfo(arena+hblkhd)
         31645 MiB available memory on the node where the printing process lives
------------------
     ethr =  3.91E-05,  avg # of iterations =  3.8

     =================== HUBBARD OCCUPATIONS ===================
     ------------------------ ATOM    1 ------------------------
     Tr[ns(  1)] (up, down, total) =   4.61127  3.84072  8.45199
     Atomic magnetic moment for atom   1 =   0.77055
     SPIN  1
     eigenvalues:
       0.908  0.908  0.916  0.939  0.940
     eigenvectors (columns):
       0.863 -0.000  0.300  0.000 -0.406
       0.436  0.077 -0.492  0.494  0.563
      -0.252  0.133  0.284  0.856 -0.325
      -0.018 -0.856 -0.383  0.133 -0.321
       0.031 -0.494  0.663  0.077  0.556
     occupation matrix ns (before diag.):
       0.914 -0.008  0.005  0.003 -0.006
      -0.008  0.928  0.006 -0.002  0.009
       0.005  0.006  0.935  0.006 -0.002
       0.003 -0.002  0.006  0.913 -0.007
      -0.006  0.009 -0.002 -0.007  0.922
     SPIN  2
     eigenvalues:
       0.618  0.621  0.860  0.863  0.878
     eigenvectors (columns):
       0.000  0.878  0.288  0.000 -0.382
       0.153  0.412 -0.529 -0.476  0.548
       0.266 -0.238  0.305 -0.824 -0.317
      -0.824  0.025  0.369 -0.266  0.337
      -0.476 -0.044 -0.639 -0.153 -0.583
     occupation matrix ns (before diag.):
       0.678 -0.090  0.052 -0.008  0.013
      -0.090  0.820  0.012  0.032  0.016
       0.052  0.012  0.833  0.053  0.032
      -0.008  0.032  0.053  0.698 -0.098
       0.013  0.016  0.032 -0.098  0.811
     ------------------------ ATOM    2 ------------------------
     Tr[ns(  2)] (up, down, total) =   3.88732  4.64738  8.53470
     Atomic magnetic moment for atom   2 =  -0.76005
     SPIN  1
     eigenvalues:
       0.628  0.631  0.870  0.873  0.886
     eigenvectors (columns):
      -0.881  0.000 -0.275 -0.000  0.385
      -0.407 -0.146  0.524  0.478 -0.556
       0.235 -0.253 -0.303  0.828  0.321
      -0.028  0.828 -0.373  0.253 -0.331
       0.049  0.478  0.647  0.146  0.574
     occupation matrix ns (before diag.):
       0.684 -0.090  0.052 -0.008  0.014
      -0.090  0.830  0.013  0.030  0.017
       0.052  0.013  0.845  0.051  0.030
      -0.008  0.030  0.051  0.708 -0.097
       0.014  0.017  0.030 -0.097  0.820
     SPIN  2
     eigenvalues:
       0.917  0.918  0.921  0.945  0.946
     eigenvectors (columns):
       0.000  0.873  0.303  0.000 -0.382
       0.091  0.422 -0.476  0.492  0.588
       0.157 -0.244  0.275  0.852 -0.339
      -0.852 -0.002 -0.389  0.157 -0.314
      -0.492  0.004  0.674  0.091  0.544
     occupation matrix ns (before diag.):
       0.922 -0.007  0.004  0.003 -0.005
      -0.007  0.935  0.005 -0.002  0.009
       0.004  0.005  0.941  0.006 -0.002
       0.003 -0.002  0.006  0.922 -0.006
      -0.005  0.009 -0.002 -0.006  0.928

     Number of occupied Hubbard levels =   16.9867

     HUBBARD ENERGY =    0.3316  (Ry)

     total cpu time spent up to now is        6.0 secs

     total energy              =    -685.79912411 Ry
     estimated scf accuracy    <       0.02657644 Ry

     total magnetization       =     0.00 Bohr mag/cell
     absolute magnetization    =     1.58 Bohr mag/cell

     iteration #  9     ecut=    40.00 Ry     beta= 0.70
     Davidson diagonalization with overlap

---- Real-time Memory Report at c_bands before calling an iterative solver
           132 MiB given to the printing process from OS
            66 MiB allocation reported by mallinfo(arena+hblkhd)
         31645 MiB available memory on the node where the printing process lives
------------------
     ethr =  3.91E-05,  avg # of iterations =  1.0

     =================== HUBBARD OCCUPATIONS ===================
     ------------------------ ATOM    1 ------------------------
     Tr[ns(  1)] (up, down, total) =   4.61023  3.84226  8.45249
     Atomic magnetic moment for atom   1 =   0.76797
     SPIN  1
     eigenvalues:
       0.908  0.908  0.915  0.939  0.940
     eigenvectors (columns):
       0.865 -0.000  0.299  0.000 -0.402
       0.433  0.079 -0.494  0.494  0.564
      -0.250  0.136  0.285  0.855 -0.326
      -0.017 -0.855 -0.383  0.136 -0.321
       0.030 -0.494  0.663  0.079  0.557
     occupation matrix ns (before diag.):
       0.914 -0.008  0.005  0.003 -0.006
      -0.008  0.928  0.006 -0.002  0.009
       0.005  0.006  0.934  0.006 -0.002
       0.003 -0.002  0.006  0.913 -0.007
      -0.006  0.009 -0.002 -0.007  0.921
     SPIN  2
     eigenvalues:
       0.619  0.621  0.860  0.863  0.878
     eigenvectors (columns):
       0.000  0.878  0.287  0.000 -0.383
       0.153  0.412 -0.527 -0.476  0.550
       0.265 -0.238  0.305 -0.825 -0.317
      -0.825  0.025  0.370 -0.265  0.336
      -0.476 -0.044 -0.640 -0.153 -0.581
     occupation matrix ns (before diag.):
       0.679 -0.090  0.052 -0.008  0.013
      -0.090  0.820  0.012  0.032  0.016
       0.052  0.012  0.834  0.053  0.032
      -0.008  0.032  0.053  0.698 -0.098
       0.013  0.016  0.032 -0.098  0.811
     ------------------------ ATOM    2 ------------------------
     Tr[ns(  2)] (up, down, total) =   3.88277  4.64277  8.52554
     Atomic magnetic moment for atom   2 =  -0.76000
     SPIN  1
     eigenvalues:
       0.626  0.630  0.869  0.873  0.885
     eigenvectors (columns):
      -0.881  0.000 -0.273 -0.000  0.387
      -0.407 -0.146  0.521  0.478 -0.559
       0.235 -0.254 -0.301  0.828  0.323
      -0.028  0.828 -0.375  0.254 -0.329
       0.049  0.478  0.650  0.146  0.570
     occupation matrix ns (before diag.):
       0.683 -0.091  0.052 -0.008  0.014
      -0.091  0.830  0.013  0.030  0.017
       0.052  0.013  0.844  0.051  0.030
      -0.008  0.030  0.051  0.707 -0.097
       0.014  0.017  0.030 -0.097  0.819
     SPIN  2
     eigenvalues:
       0.916  0.917  0.921  0.944  0.945
     eigenvectors (columns):
       0.000  0.875  0.300  0.000 -0.379
       0.092  0.419 -0.479  0.492  0.587
       0.159 -0.242  0.277  0.851 -0.339
      -0.851 -0.003 -0.388  0.159 -0.315
      -0.492  0.005  0.673  0.092  0.545
     occupation matrix ns (before diag.):
       0.921 -0.007  0.004  0.003 -0.005
      -0.007  0.934  0.005 -0.002  0.009
       0.004  0.005  0.940  0.006 -0.002
       0.003 -0.002  0.006  0.921 -0.006
      -0.005  0.009 -0.002 -0.006  0.927

     Number of occupied Hubbard levels =   16.9780

     HUBBARD ENERGY =    0.3353  (Ry)

     total cpu time spent up to now is        6.5 secs

     total energy              =    -685.79832304 Ry
     estimated scf accuracy    <       0.02870562 Ry

     total magnetization       =     0.00 Bohr mag/cell
     absolute magnetization    =     1.57 Bohr mag/cell

     iteration # 10     ecut=    40.00 Ry     beta= 0.70
     Davidson diagonalization with overlap

---- Real-time Memory Report at c_bands before calling an iterative solver
           132 MiB given to the printing process from OS
            66 MiB allocation reported by mallinfo(arena+hblkhd)
         31644 MiB available memory on the node where the printing process lives
------------------
     ethr =  3.91E-05,  avg # of iterations =  4.9

     =================== HUBBARD OCCUPATIONS ===================
     ------------------------ ATOM    1 ------------------------
     Tr[ns(  1)] (up, down, total) =   4.58731  3.74693  8.33425
     Atomic magnetic moment for atom   1 =   0.84038
     SPIN  1
     eigenvalues:
       0.901  0.904  0.908  0.937  0.937
     eigenvectors (columns):
       0.000  0.834 -0.296 -0.000  0.466
       0.040  0.474  0.484 -0.498 -0.540
       0.070 -0.273 -0.279 -0.863  0.312
      -0.863 -0.038  0.387 -0.070  0.314
      -0.498  0.066 -0.671 -0.040 -0.543
     occupation matrix ns (before diag.):
       0.912 -0.009  0.005  0.004 -0.008
      -0.009  0.923  0.008 -0.004  0.009
       0.005  0.008  0.932  0.005 -0.004
       0.004 -0.004  0.005  0.906 -0.008
      -0.008  0.009 -0.004 -0.008  0.915
     SPIN  2
     eigenvalues:
       0.580  0.582  0.854  0.857  0.875
     eigenvectors (columns):
       0.000  0.899 -0.000  0.312 -0.306
       0.185  0.373 -0.465 -0.651  0.433
       0.320 -0.215 -0.805  0.376 -0.250
      -0.805  0.037 -0.320  0.291  0.405
      -0.465 -0.064 -0.185 -0.504 -0.702
     occupation matrix ns (before diag.):
       0.636 -0.095  0.055 -0.011  0.020
      -0.095  0.812  0.002  0.040  0.024
       0.055  0.002  0.815  0.071  0.040
      -0.011  0.040  0.071  0.680 -0.108
       0.020  0.024  0.040 -0.108  0.805
     ------------------------ ATOM    2 ------------------------
     Tr[ns(  2)] (up, down, total) =   3.95721  4.71566  8.67287
     Atomic magnetic moment for atom   2 =  -0.75844
     SPIN  1
     eigenvalues:
       0.646  0.655  0.878  0.883  0.896
     eigenvectors (columns):
      -0.887  0.000  0.281  0.000 -0.368
      -0.396 -0.155 -0.560 -0.475  0.529
       0.229 -0.268  0.323 -0.823 -0.305
      -0.033  0.823  0.355 -0.268  0.351
       0.057  0.475 -0.614 -0.155 -0.608
     occupation matrix ns (before diag.):
       0.698 -0.085  0.049 -0.009  0.016
      -0.085  0.842  0.011  0.029  0.016
       0.049  0.011  0.855  0.050  0.029
      -0.009  0.029  0.050  0.729 -0.090
       0.016  0.016  0.029 -0.090  0.833
     SPIN  2
     eigenvalues:
       0.933  0.934  0.935  0.956  0.957
     eigenvectors (columns):
      -0.243 -0.000  0.908  0.000 -0.343
       0.493 -0.112  0.363  0.487  0.613
      -0.284 -0.194 -0.210  0.844 -0.354
       0.393  0.844 -0.011  0.194 -0.309
      -0.680  0.487  0.020  0.112  0.535
     occupation matrix ns (before diag.):
       0.938 -0.004  0.003  0.003 -0.004
      -0.004  0.948  0.004 -0.003  0.009
       0.003  0.004  0.953  0.006 -0.003
       0.003 -0.003  0.006  0.937 -0.003
      -0.004  0.009 -0.003 -0.003  0.940

     Number of occupied Hubbard levels =   17.0071

     HUBBARD ENERGY =    0.3331  (Ry)

     total cpu time spent up to now is        7.2 secs

     total energy              =    -685.80236935 Ry
     estimated scf accuracy    <       0.08318081 Ry

     total magnetization       =    -0.00 Bohr mag/cell
     absolute magnetization    =     1.68 Bohr mag/cell

     iteration # 11     ecut=    40.00 Ry     beta= 0.70
     Davidson diagonalization with overlap

---- Real-time Memory Report at c_bands before calling an iterative solver
           132 MiB given to the printing process from OS
            66 MiB allocation reported by mallinfo(arena+hblkhd)
         31644 MiB available memory on the node where the printing process lives
------------------
     ethr =  3.91E-05,  avg # of iterations =  1.0

     =================== HUBBARD OCCUPATIONS ===================
     ------------------------ ATOM    1 ------------------------
     Tr[ns(  1)] (up, down, total) =   4.59276  3.74875  8.34151
     Atomic magnetic moment for atom   1 =   0.84400
     SPIN  1
     eigenvalues:
       0.903  0.905  0.909  0.938  0.938
     eigenvectors (columns):
       0.000 -0.827  0.302  0.000 -0.474
       0.037 -0.483 -0.477  0.499  0.538
       0.064  0.279  0.275  0.864 -0.311
      -0.864  0.036 -0.389  0.064 -0.312
      -0.499 -0.063  0.674  0.037  0.540
     occupation matrix ns (before diag.):
       0.913 -0.009  0.005  0.004 -0.008
      -0.009  0.924  0.008 -0.004  0.009
       0.005  0.008  0.933  0.005 -0.004
       0.004 -0.004  0.005  0.907 -0.008
      -0.008  0.009 -0.004 -0.008  0.916
     SPIN  2
     eigenvalues:
       0.579  0.581  0.854  0.858  0.877
     eigenvectors (columns):
       0.000  0.900 -0.000  0.313 -0.303
       0.186  0.372 -0.464 -0.655  0.427
       0.322 -0.215 -0.804  0.378 -0.247
      -0.804  0.037 -0.322  0.287  0.408
      -0.464 -0.065 -0.186 -0.497 -0.706
     occupation matrix ns (before diag.):
       0.635 -0.095  0.055 -0.012  0.020
      -0.095  0.812  0.002  0.041  0.025
       0.055  0.002  0.815  0.071  0.041
      -0.012  0.041  0.071  0.680 -0.109
       0.020  0.025  0.041 -0.109  0.806
     ------------------------ ATOM    2 ------------------------
     Tr[ns(  2)] (up, down, total) =   3.95994  4.71876  8.67870
     Atomic magnetic moment for atom   2 =  -0.75882
     SPIN  1
     eigenvalues:
       0.647  0.656  0.878  0.883  0.896
     eigenvectors (columns):
      -0.887  0.000  0.283  0.000 -0.364
      -0.396 -0.155 -0.565 -0.475  0.524
       0.228 -0.269  0.326 -0.823 -0.303
      -0.033  0.823  0.352 -0.269  0.354
       0.057  0.475 -0.609 -0.155 -0.613
     occupation matrix ns (before diag.):
       0.698 -0.085  0.049 -0.009  0.016
      -0.085  0.843  0.011  0.029  0.016
       0.049  0.011  0.855  0.050  0.029
      -0.009  0.029  0.050  0.730 -0.090
       0.016  0.016  0.029 -0.090  0.834
     SPIN  2
     eigenvalues:
       0.933  0.935  0.936  0.957  0.958
     eigenvectors (columns):
      -0.237 -0.000  0.907  0.000 -0.348
       0.495 -0.108  0.364  0.488  0.611
      -0.286 -0.188 -0.210  0.845 -0.353
       0.393  0.845 -0.016  0.188 -0.309
      -0.681  0.488  0.028  0.108  0.535
     occupation matrix ns (before diag.):
       0.938 -0.004  0.003  0.003 -0.004
      -0.004  0.948  0.004 -0.003  0.009
       0.003  0.004  0.953  0.006 -0.003
       0.003 -0.003  0.006  0.938 -0.003
      -0.004  0.009 -0.003 -0.003  0.941

     Number of occupied Hubbard levels =   17.0202

     HUBBARD ENERGY =    0.3342  (Ry)

     total cpu time spent up to now is        7.6 secs

     total energy              =    -685.79739575 Ry
     estimated scf accuracy    <       0.07840954 Ry

     total magnetization       =     0.00 Bohr mag/cell
     absolute magnetization    =     1.69 Bohr mag/cell

     iteration # 12     ecut=    40.00 Ry     beta= 0.70
     Davidson diagonalization with overlap

---- Real-time Memory Report at c_bands before calling an iterative solver
           133 MiB given to the printing process from OS
            66 MiB allocation reported by mallinfo(arena+hblkhd)
         31644 MiB available memory on the node where the printing process lives
------------------
     ethr =  3.91E-05,  avg # of iterations =  2.7

     =================== HUBBARD OCCUPATIONS ===================
     ------------------------ ATOM    1 ------------------------
     Tr[ns(  1)] (up, down, total) =   4.62582  3.78005  8.40587
     Atomic magnetic moment for atom   1 =   0.84577
     SPIN  1
     eigenvalues:
       0.912  0.913  0.916  0.942  0.943
     eigenvectors (columns):
       0.000  0.819  0.338  0.000 -0.463
       0.044  0.496 -0.456  0.498  0.544
       0.077 -0.286  0.263  0.863 -0.314
      -0.863 -0.015 -0.390  0.077 -0.313
      -0.498  0.027  0.675  0.044  0.541
     occupation matrix ns (before diag.):
       0.920 -0.008  0.005  0.004 -0.007
      -0.008  0.930  0.007 -0.003  0.009
       0.005  0.007  0.938  0.005 -0.003
       0.004 -0.003  0.005  0.916 -0.006
      -0.007  0.009 -0.003 -0.006  0.923
     SPIN  2
     eigenvalues:
       0.587  0.587  0.861  0.863  0.883
     eigenvectors (columns):
       0.000  0.901  0.000 -0.311  0.304
       0.186  0.371  0.464  0.655 -0.429
       0.322 -0.214  0.804 -0.378  0.247
      -0.804  0.038  0.322 -0.288 -0.407
      -0.464 -0.066  0.186  0.499  0.705
     occupation matrix ns (before diag.):
       0.641 -0.095  0.055 -0.012  0.021
      -0.095  0.819  0.002  0.040  0.025
       0.055  0.002  0.821  0.071  0.040
      -0.012  0.040  0.071  0.687 -0.108
       0.021  0.025  0.040 -0.108  0.812
     ------------------------ ATOM    2 ------------------------
     Tr[ns(  2)] (up, down, total) =   3.92444  4.70545  8.62989
     Atomic magnetic moment for atom   2 =  -0.78101
     SPIN  1
     eigenvalues:
       0.635  0.644  0.875  0.879  0.893
     eigenvectors (columns):
      -0.889  0.000  0.285  0.000 -0.359
      -0.392 -0.159 -0.576 -0.474  0.514
       0.227 -0.276  0.332 -0.821 -0.297
      -0.035  0.821  0.345 -0.276  0.360
       0.060  0.474 -0.598 -0.159 -0.623
     occupation matrix ns (before diag.):
       0.688 -0.087  0.050 -0.010  0.017
      -0.087  0.838  0.010  0.031  0.018
       0.050  0.010  0.849  0.053  0.031
      -0.010  0.031  0.053  0.721 -0.093
       0.017  0.018  0.031 -0.093  0.829
     SPIN  2
     eigenvalues:
       0.930  0.932  0.933  0.954  0.955
     eigenvectors (columns):
      -0.267 -0.000  0.899  0.000 -0.348
       0.489 -0.101  0.379  0.490  0.606
      -0.282 -0.174 -0.219  0.848 -0.350
       0.390  0.848 -0.005  0.174 -0.312
      -0.676  0.490  0.009  0.101  0.541
     occupation matrix ns (before diag.):
       0.936 -0.004  0.002  0.003 -0.005
      -0.004  0.946  0.005 -0.003  0.009
       0.002  0.005  0.951  0.006 -0.003
       0.003 -0.003  0.006  0.935 -0.003
      -0.005  0.009 -0.003 -0.003  0.938

     Number of occupied Hubbard levels =   17.0358

     HUBBARD ENERGY =    0.3352  (Ry)

     total cpu time spent up to now is        8.1 secs

     total energy              =    -685.79809974 Ry
     estimated scf accuracy    <       0.03503377 Ry

     total magnetization       =     0.00 Bohr mag/cell
     absolute magnetization    =     1.70 Bohr mag/cell

     iteration # 13     ecut=    40.00 Ry     beta= 0.70
     Davidson diagonalization with overlap

---- Real-time Memory Report at c_bands before calling an iterative solver
           133 MiB given to the printing process from OS
            66 MiB allocation reported by mallinfo(arena+hblkhd)
         31644 MiB available memory on the node where the printing process lives
------------------
     ethr =  3.91E-05,  avg # of iterations =  1.0

     =================== HUBBARD OCCUPATIONS ===================
     ------------------------ ATOM    1 ------------------------
     Tr[ns(  1)] (up, down, total) =   4.62808  3.78602  8.41410
     Atomic magnetic moment for atom   1 =   0.84207
     SPIN  1
     eigenvalues:
       0.913  0.914  0.916  0.943  0.943
     eigenvectors (columns):
       0.000  0.819  0.344  0.000 -0.460
       0.046  0.497 -0.453  0.498  0.546
       0.079 -0.287  0.261  0.862 -0.315
      -0.862 -0.012 -0.390  0.079 -0.313
      -0.498  0.021  0.675  0.046  0.542
     occupation matrix ns (before diag.):
       0.920 -0.008  0.004  0.004 -0.007
      -0.008  0.930  0.007 -0.003  0.009
       0.004  0.007  0.938  0.005 -0.003
       0.004 -0.003  0.005  0.916 -0.006
      -0.007  0.009 -0.003 -0.006  0.923
     SPIN  2
     eigenvalues:
       0.588  0.588  0.862  0.864  0.883
     eigenvectors (columns):
       0.000  0.901  0.000 -0.310  0.304
       0.186  0.370  0.464  0.655 -0.429
       0.323 -0.214  0.804 -0.378  0.248
      -0.804  0.038  0.323 -0.288 -0.407
      -0.464 -0.066  0.186  0.499  0.705
     occupation matrix ns (before diag.):
       0.642 -0.094  0.055 -0.012  0.021
      -0.094  0.820  0.002  0.040  0.025
       0.055  0.002  0.822  0.071  0.040
      -0.012  0.040  0.071  0.689 -0.108
       0.021  0.025  0.040 -0.108  0.813
     ------------------------ ATOM    2 ------------------------
     Tr[ns(  2)] (up, down, total) =   3.92210  4.70278  8.62488
     Atomic magnetic moment for atom   2 =  -0.78068
     SPIN  1
     eigenvalues:
       0.634  0.643  0.874  0.878  0.892
     eigenvectors (columns):
      -0.889  0.000  0.285  0.000 -0.358
      -0.392 -0.160 -0.577 -0.474  0.513
       0.226 -0.276  0.333 -0.821 -0.296
      -0.035  0.821  0.344 -0.276  0.361
       0.060  0.474 -0.596 -0.160 -0.625
     occupation matrix ns (before diag.):
       0.687 -0.087  0.050 -0.010  0.017
      -0.087  0.837  0.010  0.031  0.018
       0.050  0.010  0.849  0.053  0.031
      -0.010  0.031  0.053  0.721 -0.093
       0.017  0.018  0.031 -0.093  0.829
     SPIN  2
     eigenvalues:
       0.930  0.931  0.933  0.954  0.955
     eigenvectors (columns):
      -0.252 -0.000  0.901  0.000 -0.353
       0.496 -0.098  0.375  0.490  0.603
      -0.286 -0.170 -0.217  0.849 -0.348
       0.390  0.849 -0.014  0.170 -0.313
      -0.676  0.490  0.023  0.098  0.541
     occupation matrix ns (before diag.):
       0.935 -0.004  0.003  0.003 -0.005
      -0.004  0.945  0.005 -0.003  0.009
       0.003  0.005  0.951  0.006 -0.003
       0.003 -0.003  0.006  0.934 -0.003
      -0.005  0.009 -0.003 -0.003  0.938

     Number of occupied Hubbard levels =   17.0390

     HUBBARD ENERGY =    0.3331  (Ry)

     total cpu time spent up to now is        8.6 secs

     total energy              =    -685.79752322 Ry
     estimated scf accuracy    <       0.03160182 Ry

     total magnetization       =    -0.00 Bohr mag/cell
     absolute magnetization    =     1.70 Bohr mag/cell

     iteration # 14     ecut=    40.00 Ry     beta= 0.70
     Davidson diagonalization with overlap

---- Real-time Memory Report at c_bands before calling an iterative solver
           133 MiB given to the printing process from OS
            66 MiB allocation reported by mallinfo(arena+hblkhd)
         31643 MiB available memory on the node where the printing process lives
------------------
     ethr =  3.91E-05,  avg # of iterations =  2.1

     =================== HUBBARD OCCUPATIONS ===================
     ------------------------ ATOM    1 ------------------------
     Tr[ns(  1)] (up, down, total) =   4.64702  3.80243  8.44945
     Atomic magnetic moment for atom   1 =   0.84459
     SPIN  1
     eigenvalues:
       0.918  0.919  0.920  0.945  0.945
     eigenvectors (columns):
       0.000  0.817 -0.363  0.000 -0.447
       0.051  0.499  0.428  0.497  0.564
       0.088 -0.288 -0.247  0.862 -0.326
      -0.862  0.008  0.395  0.088 -0.307
      -0.497 -0.014 -0.684  0.051  0.531
     occupation matrix ns (before diag.):
       0.925 -0.007  0.004  0.004 -0.006
      -0.007  0.934  0.006 -0.003  0.008
       0.004  0.006  0.941  0.005 -0.003
       0.004 -0.003  0.005  0.921 -0.005
      -0.006  0.008 -0.003 -0.005  0.926
     SPIN  2
     eigenvalues:
       0.591  0.591  0.866  0.868  0.887
     eigenvectors (columns):
       0.901 -0.000  0.000 -0.305  0.307
       0.369  0.186  0.464  0.652 -0.435
      -0.213  0.323  0.804 -0.376  0.251
       0.039 -0.804  0.323 -0.292 -0.404
      -0.068 -0.464  0.186  0.505  0.700
     occupation matrix ns (before diag.):
       0.644 -0.095  0.055 -0.012  0.021
      -0.095  0.824  0.002  0.040  0.025
       0.055  0.002  0.826  0.072  0.040
      -0.012  0.040  0.072  0.691 -0.108
       0.021  0.025  0.040 -0.108  0.816
     ------------------------ ATOM    2 ------------------------
     Tr[ns(  2)] (up, down, total) =   3.89862  4.69560  8.59422
     Atomic magnetic moment for atom   2 =  -0.79697
     SPIN  1
     eigenvalues:
       0.626  0.631  0.873  0.877  0.891
     eigenvectors (columns):
      -0.894  0.000  0.275 -0.000 -0.353
      -0.382 -0.167 -0.584  0.471  0.513
       0.221 -0.288  0.337  0.817 -0.296
      -0.038  0.817  0.343  0.288  0.362
       0.066  0.471 -0.594  0.167 -0.627
     occupation matrix ns (before diag.):
       0.678 -0.088  0.051 -0.011  0.018
      -0.088  0.836  0.008  0.033  0.020
       0.051  0.008  0.845  0.058  0.033
      -0.011  0.033  0.058  0.714 -0.096
       0.018  0.020  0.033 -0.096  0.826
     SPIN  2
     eigenvalues:
       0.928  0.930  0.931  0.953  0.954
     eigenvectors (columns):
      -0.258 -0.000  0.897  0.000 -0.358
       0.496 -0.096  0.381  0.491  0.599
      -0.286 -0.166 -0.220  0.850 -0.346
       0.389  0.850 -0.013  0.166 -0.314
      -0.674  0.491  0.023  0.096  0.543
     occupation matrix ns (before diag.):
       0.934 -0.004  0.003  0.003 -0.005
      -0.004  0.944  0.005 -0.003  0.009
       0.003  0.005  0.949  0.006 -0.003
       0.003 -0.003  0.006  0.933 -0.003
      -0.005  0.009 -0.003 -0.003  0.936

     Number of occupied Hubbard levels =   17.0437

     HUBBARD ENERGY =    0.3325  (Ry)

     total cpu time spent up to now is        9.0 secs

     total energy              =    -685.79886099 Ry
     estimated scf accuracy    <       0.01618095 Ry

     total magnetization       =     0.00 Bohr mag/cell
     absolute magnetization    =     1.71 Bohr mag/cell

     iteration # 15     ecut=    40.00 Ry     beta= 0.70
     Davidson diagonalization with overlap

---- Real-time Memory Report at c_bands before calling an iterative solver
           133 MiB given to the printing process from OS
            66 MiB allocation reported by mallinfo(arena+hblkhd)
         31643 MiB available memory on the node where the printing process lives
------------------
     ethr =  3.91E-05,  avg # of iterations =  1.0

     =================== HUBBARD OCCUPATIONS ===================
     ------------------------ ATOM    1 ------------------------
     Tr[ns(  1)] (up, down, total) =   4.64647  3.80026  8.44673
     Atomic magnetic moment for atom   1 =   0.84621
     SPIN  1
     eigenvalues:
       0.917  0.919  0.919  0.945  0.945
     eigenvectors (columns):
       0.000  0.096  0.888  0.000 -0.449
       0.050  0.622  0.217  0.498  0.562
       0.086 -0.359 -0.125  0.862 -0.325
      -0.862  0.345 -0.192  0.086 -0.307
      -0.498 -0.597  0.333  0.050  0.532
     occupation matrix ns (before diag.):
       0.925 -0.007  0.004  0.004 -0.006
      -0.007  0.934  0.006 -0.003  0.008
       0.004  0.006  0.941  0.005 -0.003
       0.004 -0.003  0.005  0.921 -0.005
      -0.006  0.008 -0.003 -0.005  0.926
     SPIN  2
     eigenvalues:
       0.589  0.590  0.866  0.868  0.886
     eigenvectors (columns):
       0.902 -0.000  0.000  0.306 -0.305
       0.368  0.187  0.464 -0.655  0.430
      -0.212  0.324  0.803  0.378 -0.249
       0.039 -0.803  0.324  0.289  0.406
      -0.068 -0.464  0.187 -0.501 -0.703
     occupation matrix ns (before diag.):
       0.643 -0.095  0.055 -0.012  0.021
      -0.095  0.824  0.002  0.041  0.026
       0.055  0.002  0.826  0.072  0.041
      -0.012  0.041  0.072  0.691 -0.108
       0.021  0.026  0.041 -0.108  0.816
     ------------------------ ATOM    2 ------------------------
     Tr[ns(  2)] (up, down, total) =   3.90008  4.69734  8.59742
     Atomic magnetic moment for atom   2 =  -0.79726
     SPIN  1
     eigenvalues:
       0.626  0.631  0.874  0.877  0.892
     eigenvectors (columns):
      -0.895  0.000  0.274 -0.000 -0.353
      -0.381 -0.167 -0.586  0.471  0.512
       0.220 -0.290  0.338  0.816 -0.296
      -0.038  0.816  0.342  0.290  0.363
       0.066  0.471 -0.592  0.167 -0.628
     occupation matrix ns (before diag.):
       0.677 -0.088  0.051 -0.011  0.019
      -0.088  0.837  0.008  0.033  0.020
       0.051  0.008  0.845  0.058  0.033
      -0.011  0.033  0.058  0.715 -0.097
       0.019  0.020  0.033 -0.097  0.826
     SPIN  2
     eigenvalues:
       0.929  0.930  0.931  0.953  0.954
     eigenvectors (columns):
      -0.250 -0.000  0.899  0.000 -0.361
       0.499 -0.095  0.379  0.491  0.598
      -0.288 -0.164 -0.219  0.850 -0.345
       0.389  0.850 -0.018  0.164 -0.314
      -0.674  0.491  0.030  0.095  0.543
     occupation matrix ns (before diag.):
       0.934 -0.005  0.003  0.003 -0.005
[...]
          k = 0.2483-0.3361 0.1742 (   623 PWs)   bands (ev):

   -85.2597 -83.9654 -45.8232 -45.7685 -45.6674 -44.5160 -44.4977 -44.4748
     9.9384  12.4262  13.6265  14.0766  14.1999  14.4563  14.8912  15.3745
    15.6924  16.0805

     occupation numbers 
     1.0000   1.0000   1.0000   1.0000   1.0000   1.0000   1.0000   1.0000
     1.0000   1.0000   1.0000   1.0000   1.0000   1.0000   1.0000   1.0000
     1.0000   1.0000

          k = 0.2514-0.3378 0.5844 (   618 PWs)   bands (ev):

   -85.2473 -83.9525 -45.9081 -45.7910 -45.6562 -44.6035 -44.5009 -44.4894
    11.5588  12.9520  13.3385  13.7727  14.4490  14.8416  15.1332  15.4868
    15.9885  16.3589

     occupation numbers 
     1.0000   1.0000   1.0000   1.0000   1.0000   1.0000   1.0000   1.0000
     1.0000   1.0000   1.0000   1.0000   1.0000   1.0000   1.0000   1.0000
     1.0000   1.0000

          k = 0.2544-0.3396 0.9946 (   621 PWs)   bands (ev):

   -85.2384 -83.9433 -45.9692 -45.8090 -45.6461 -44.6677 -44.5199 -44.4835
    12.2775  12.6576  13.5004  14.1420  14.4368  14.9832  15.7191  15.9155
    16.2437  17.9429

     occupation numbers 
     1.0000   1.0000   1.0000   1.0000   1.0000   1.0000   1.0000   1.0000
     1.0000   1.0000   1.0000   1.0000   1.0000   1.0000   1.0000   1.0000
     1.0000   1.0000

          k = 0.2392-0.3308-1.0563 (   626 PWs)   bands (ev):

   -85.2416 -83.9468 -45.9482 -45.8025 -45.6500 -44.6424 -44.5128 -44.4865
    12.2601  12.3535  13.8190  13.9990  14.5159  14.6742  15.6234  16.2723
    16.4497  17.0143

     occupation numbers 
     1.0000   1.0000   1.0000   1.0000   1.0000   1.0000   1.0000   1.0000
     1.0000   1.0000   1.0000   1.0000   1.0000   1.0000   1.0000   1.0000
     1.0000   1.0000

          k = 0.2422-0.3325-0.6461 (   625 PWs)   bands (ev):

   -85.2537 -83.9594 -45.8638 -45.7784 -45.6603 -44.5552 -44.4984 -44.4861
    11.8537  12.1244  13.3101  13.8099  14.3154  14.4994  14.9151  15.2247
    15.8768  16.2089

     occupation numbers 
     1.0000   1.0000   1.0000   1.0000   1.0000   1.0000   1.0000   1.0000
     1.0000   1.0000   1.0000   1.0000   1.0000   1.0000   1.0000   1.0000
     1.0000   1.0000

          k = 0.2453-0.3343-0.2359 (   623 PWs)   bands (ev):

   -85.2630 -83.9690 -45.7977 -45.7646 -45.6677 -44.5114 -44.4810 -44.4715
    10.0632  11.7922  13.7721  14.0308  14.0673  14.4825  14.9644  15.2786
    15.4389  15.6068

     occupation numbers 
     1.0000   1.0000   1.0000   1.0000   1.0000   1.0000   1.0000   1.0000
     1.0000   1.0000   1.0000   1.0000   1.0000   1.0000   1.0000   1.0000
     1.0000   1.0000

          k = 0.4137-0.0461-0.0309 (   620 PWs)   bands (ev):

   -85.2631 -83.9690 -45.7979 -45.7644 -45.6689 -44.5093 -44.4815 -44.4711
     9.7497  11.9762  13.8002  14.0156  14.1962  14.4360  14.9836  15.4196
    15.5402  15.6317

     occupation numbers 
     1.0000   1.0000   1.0000   1.0000   1.0000   1.0000   1.0000   1.0000
     1.0000   1.0000   1.0000   1.0000   1.0000   1.0000   1.0000   1.0000
     1.0000   1.0000

          k = 0.4167-0.0479 0.3793 (   622 PWs)   bands (ev):

   -85.2539 -83.9594 -45.8633 -45.7784 -45.6629 -44.5556 -44.4956 -44.4857
    10.5926  12.9719  13.3944  13.7311  14.4947  14.7032  14.8630  15.2334
    15.9637  16.1999

     occupation numbers 
     1.0000   1.0000   1.0000   1.0000   1.0000   1.0000   1.0000   1.0000
     1.0000   1.0000   1.0000   1.0000   1.0000   1.0000   1.0000   1.0000
     1.0000   1.0000

          k = 0.4198-0.0497 0.7895 (   617 PWs)   bands (ev):

   -85.2416 -83.9466 -45.9467 -45.8023 -45.6497 -44.6446 -44.5127 -44.4857
    12.2764  12.9735  13.0190  14.2442  14.2831  14.8476  15.5122  15.7319
    16.0874  16.9664

     occupation numbers 
     1.0000   1.0000   1.0000   1.0000   1.0000   1.0000   1.0000   1.0000
     1.0000   1.0000   1.0000   1.0000   1.0000   1.0000   1.0000   1.0000
     1.0000   1.0000

          k = 0.4045-0.0409-1.2614 (   623 PWs)   bands (ev):

   -85.2384 -83.9434 -45.9698 -45.8091 -45.6464 -44.6667 -44.5199 -44.4836
    12.2571  12.4157  13.7729  13.9834  14.4843  15.0056  15.8120  16.1410
    16.3656  17.9630

     occupation numbers 
     1.0000   1.0000   1.0000   1.0000   1.0000   1.0000   1.0000   1.0000
     1.0000   1.0000   1.0000   1.0000   1.0000   1.0000   1.0000   1.0000
     1.0000   1.0000

          k = 0.4076-0.0426-0.8512 (   626 PWs)   bands (ev):

   -85.2472 -83.9526 -45.9096 -45.7911 -45.6551 -44.6017 -44.5005 -44.4919
    12.1800  12.4532  13.5754  13.9599  14.2900  14.5857  15.2154  15.6593
    16.2308  16.4701

     occupation numbers 
     1.0000   1.0000   1.0000   1.0000   1.0000   1.0000   1.0000   1.0000
     1.0000   1.0000   1.0000   1.0000   1.0000   1.0000   1.0000   1.0000
     1.0000   1.0000

          k = 0.4106-0.0444-0.4410 (   620 PWs)   bands (ev):

   -85.2595 -83.9655 -45.8228 -45.7686 -45.6647 -44.5187 -44.4985 -44.4750
    10.8382  11.8859  13.5582  13.8704  14.2367  14.3218  14.8988  15.3161
    15.5541  15.8238

     occupation numbers 
     1.0000   1.0000   1.0000   1.0000   1.0000   1.0000   1.0000   1.0000
     1.0000   1.0000   1.0000   1.0000   1.0000   1.0000   1.0000   1.0000
     1.0000   1.0000

          k = 0.4143 0.3389-0.1692 (   622 PWs)   bands (ev):

   -85.2543 -83.9598 -45.8317 -45.8079 -45.6625 -44.5402 -44.5058 -44.4881
    10.5659  12.9645  13.3946  13.7369  14.4763  14.6887  14.8876  15.2060
    15.9730  16.1655

     occupation numbers 
     1.0000   1.0000   1.0000   1.0000   1.0000   1.0000   1.0000   1.0000
     1.0000   1.0000   1.0000   1.0000   1.0000   1.0000   1.0000   1.0000
     1.0000   1.0000

          k = 0.4173 0.3371 0.2409 (   620 PWs)   bands (ev):

   -85.2521 -83.9573 -45.8613 -45.7995 -45.6616 -44.5649 -44.5022 -44.4857
    10.6991  12.7821  13.3657  13.8510  14.4777  14.6914  14.9796  15.5531
    16.0439  16.2761

     occupation numbers 
     1.0000   1.0000   1.0000   1.0000   1.0000   1.0000   1.0000   1.0000
     1.0000   1.0000   1.0000   1.0000   1.0000   1.0000   1.0000   1.0000
     1.0000   1.0000

          k = 0.4204 0.3354 0.6511 (   621 PWs)   bands (ev):

   -85.2428 -83.9479 -45.9183 -45.8212 -45.6515 -44.6205 -44.5265 -44.4849
    12.3468  12.9733  13.0962  13.7810  14.2818  14.9417  15.5158  15.5836
    15.9450  16.8194

     occupation numbers 
     1.0000   1.0000   1.0000   1.0000   1.0000   1.0000   1.0000   1.0000
     1.0000   1.0000   1.0000   1.0000   1.0000   1.0000   1.0000   1.0000
     1.0000   1.0000

          k = 0.4051 0.3442-1.3998 (   614 PWs)   bands (ev):

   -85.2362 -83.9412 -45.9431 -45.8552 -45.6449 -44.6387 -44.5674 -44.4806
    12.6897  12.9367  13.6199  13.8049  14.0500  15.0526  15.6459  16.2108
    16.3534  17.3644

     occupation numbers 
     1.0000   1.0000   1.0000   1.0000   1.0000   1.0000   1.0000   1.0000
     1.0000   1.0000   1.0000   1.0000   1.0000   1.0000   1.0000   1.0000
     1.0000   1.0000

          k = 0.4082 0.3424-0.9896 (   623 PWs)   bands (ev):

   -85.2385 -83.9438 -45.9369 -45.8410 -45.6475 -44.6326 -44.5502 -44.4828
    12.4416  13.0944  13.3233  13.8550  14.0298  15.1838  15.3546  16.4957
    16.6768  16.9714

     occupation numbers 
     1.0000   1.0000   1.0000   1.0000   1.0000   1.0000   1.0000   1.0000
     1.0000   1.0000   1.0000   1.0000   1.0000   1.0000   1.0000   1.0000
     1.0000   1.0000

          k = 0.4112 0.3406-0.5794 (   620 PWs)   bands (ev):

   -85.2476 -83.9530 -45.8927 -45.8048 -45.6548 -44.5946 -44.5081 -44.4890
    11.8590  12.7680  13.6043  13.8271  14.3679  14.5993  15.2064  15.4483
    16.0174  16.3763

     occupation numbers 
     1.0000   1.0000   1.0000   1.0000   1.0000   1.0000   1.0000   1.0000
     1.0000   1.0000   1.0000   1.0000   1.0000   1.0000   1.0000   1.0000
     1.0000   1.0000

          k = 0.4149 0.7239-0.3076 (   617 PWs)   bands (ev):

   -85.2425 -83.9475 -45.9169 -45.8274 -45.6493 -44.6288 -44.5236 -44.4854
    12.2615  12.9809  13.0269  14.2278  14.2519  14.8368  15.5080  15.6866
    16.0772  16.9429

     occupation numbers 
     1.0000   1.0000   1.0000   1.0000   1.0000   1.0000   1.0000   1.0000
     1.0000   1.0000   1.0000   1.0000   1.0000   1.0000   1.0000   1.0000
     1.0000   1.0000

          k = 0.4180 0.7222 0.1025 (   621 PWs)   bands (ev):

   -85.2432 -83.9483 -45.8923 -45.8451 -45.6509 -44.6070 -44.5367 -44.4856
    12.3190  12.9877  13.1277  13.7687  14.2689  14.9373  15.4997  15.5863
    15.9143  16.7988

     occupation numbers 
     1.0000   1.0000   1.0000   1.0000   1.0000   1.0000   1.0000   1.0000
     1.0000   1.0000   1.0000   1.0000   1.0000   1.0000   1.0000   1.0000
     1.0000   1.0000

          k = 0.4210 0.7204 0.5127 (   621 PWs)   bands (ev):

   -85.2410 -83.9459 -45.9371 -45.8203 -45.6470 -44.6485 -44.5187 -44.4848
    12.2394  12.9432  13.1030  14.2806  14.6536  14.7589  15.4181  15.5934
    16.3028  17.6347

     occupation numbers 
     1.0000   1.0000   1.0000   1.0000   1.0000   1.0000   1.0000   1.0000
     1.0000   1.0000   1.0000   1.0000   1.0000   1.0000   1.0000   1.0000
     1.0000   1.0000

          k = 0.4057 0.7292-1.5382 (   619 PWs)   bands (ev):

   -85.2375 -83.9424 -45.9354 -45.8519 -45.6442 -44.6450 -44.5513 -44.4828
    12.6865  12.9173  13.5344  13.8668  14.2004  14.9193  15.7311  15.9399
    16.1258  17.7201

     occupation numbers 
     1.0000   1.0000   1.0000   1.0000   1.0000   1.0000   1.0000   1.0000
     1.0000   1.0000   1.0000   1.0000   1.0000   1.0000   1.0000   1.0000
     1.0000   1.0000

          k = 0.4088 0.7274-1.1280 (   615 PWs)   bands (ev):

   -85.2365 -83.9415 -45.9131 -45.8825 -45.6440 -44.6228 -44.5810 -44.4816
    12.9904  13.0658  13.4352  13.6466  14.0906  15.0668  15.6203  15.9745
    16.1805  17.4588

     occupation numbers 
     1.0000   1.0000   1.0000   1.0000   1.0000   1.0000   1.0000   1.0000
     1.0000   1.0000   1.0000   1.0000   1.0000   1.0000   1.0000   1.0000
     1.0000   1.0000

          k = 0.4118 0.7257-0.7178 (   621 PWs)   bands (ev):

   -85.2392 -83.9441 -45.9441 -45.8289 -45.6451 -44.6549 -44.5281 -44.4841
    12.3816  12.8945  13.3184  14.2813  14.3376  14.8738  15.5384  15.7993
    16.2032  18.0188

     occupation numbers 
     1.0000   1.0000   1.0000   1.0000   1.0000   1.0000   1.0000   1.0000
     1.0000   1.0000   1.0000   1.0000   1.0000   1.0000   1.0000   1.0000
     1.0000   1.0000

          k = 0.4118-1.2012 0.3843 (   623 PWs)   bands (ev):

   -85.2393 -83.9442 -45.9449 -45.8291 -45.6462 -44.6535 -44.5279 -44.4833
    12.2706  12.4189  13.7637  13.9522  14.4824  14.9873  15.8044  16.1002
    16.3587  18.0034

     occupation numbers 
     1.0000   1.0000   1.0000   1.0000   1.0000   1.0000   1.0000   1.0000
     1.0000   1.0000   1.0000   1.0000   1.0000   1.0000   1.0000   1.0000
     1.0000   1.0000

          k = 0.4149-1.2030 0.7945 (   614 PWs)   bands (ev):

   -85.2366 -83.9416 -45.9137 -45.8823 -45.6446 -44.6215 -44.5816 -44.4810
    12.7181  12.9548  13.6028  13.7857  14.0283  15.0422  15.6433  16.1982
    16.3498  17.3680

     occupation numbers 
     1.0000   1.0000   1.0000   1.0000   1.0000   1.0000   1.0000   1.0000
     1.0000   1.0000   1.0000   1.0000   1.0000   1.0000   1.0000   1.0000
     1.0000   1.0000

          k = 0.4179-1.2048 1.2047 (   619 PWs)   bands (ev):

   -85.2375 -83.9424 -45.9352 -45.8519 -45.6444 -44.6451 -44.5513 -44.4825
    12.6933  12.9093  13.5489  13.8527  14.1939  14.9230  15.7396  15.9225
    16.1425  17.7164

     occupation numbers 
     1.0000   1.0000   1.0000   1.0000   1.0000   1.0000   1.0000   1.0000
     1.0000   1.0000   1.0000   1.0000   1.0000   1.0000   1.0000   1.0000
     1.0000   1.0000

          k = 0.4027-1.1960-0.8462 (   620 PWs)   bands (ev):

   -85.2412 -83.9461 -45.9376 -45.8204 -45.6482 -44.6476 -44.5184 -44.4831
    12.0760  12.5200  13.3180  14.2321  14.5458  15.0327  15.6139  15.9506
    16.3687  17.2865

     occupation numbers 
     1.0000   1.0000   1.0000   1.0000   1.0000   1.0000   1.0000   1.0000
     1.0000   1.0000   1.0000   1.0000   1.0000   1.0000   1.0000   1.0000
     1.0000   1.0000

          k = 0.4057-1.1977-0.4360 (   618 PWs)   bands (ev):

   -85.2432 -83.9484 -45.8930 -45.8449 -45.6513 -44.6061 -44.5368 -44.4852
    12.2364  12.8264  13.2447  13.8451  14.2870  14.8664  15.4548  15.7225
    16.2131  16.7440

     occupation numbers 
     1.0000   1.0000   1.0000   1.0000   1.0000   1.0000   1.0000   1.0000
     1.0000   1.0000   1.0000   1.0000   1.0000   1.0000   1.0000   1.0000
     1.0000   1.0000

          k = 0.4088-1.1995-0.0259 (   618 PWs)   bands (ev):

   -85.2424 -83.9475 -45.9172 -45.8274 -45.6487 -44.6283 -44.5238 -44.4859
    12.3572  12.6685  13.4851  14.1625  14.3196  14.7146  15.5097  15.7290
    16.1588  17.0028

     occupation numbers 
     1.0000   1.0000   1.0000   1.0000   1.0000   1.0000   1.0000   1.0000
     1.0000   1.0000   1.0000   1.0000   1.0000   1.0000   1.0000   1.0000
     1.0000   1.0000

          k = 0.4125-0.8162 0.2459 (   626 PWs)   bands (ev):

   -85.2476 -83.9531 -45.8935 -45.8049 -45.6549 -44.5935 -44.5078 -44.4899
    12.1666  12.4512  13.5732  13.9551  14.2823  14.5614  15.2302  15.6328
    16.2292  16.4573

     occupation numbers 
     1.0000   1.0000   1.0000   1.0000   1.0000   1.0000   1.0000   1.0000
     1.0000   1.0000   1.0000   1.0000   1.0000   1.0000   1.0000   1.0000
     1.0000   1.0000

          k = 0.4155-0.8180 0.6561 (   623 PWs)   bands (ev):

   -85.2385 -83.9438 -45.9368 -45.8412 -45.6474 -44.6326 -44.5501 -44.4829
    12.4462  13.0969  13.3201  13.8559  14.0262  15.1811  15.3548  16.4909
    16.7077  16.9580

     occupation numbers 
     1.0000   1.0000   1.0000   1.0000   1.0000   1.0000   1.0000   1.0000
     1.0000   1.0000   1.0000   1.0000   1.0000   1.0000   1.0000   1.0000
     1.0000   1.0000

          k = 0.4186-0.8197 1.0663 (   615 PWs)   bands (ev):

   -85.2361 -83.9411 -45.9425 -45.8555 -45.6443 -44.6399 -44.5669 -44.4811
    12.9645  13.0516  13.4514  13.6610  14.1046  15.0724  15.6220  15.9862
    16.2100  17.4402

     occupation numbers 
     1.0000   1.0000   1.0000   1.0000   1.0000   1.0000   1.0000   1.0000
     1.0000   1.0000   1.0000   1.0000   1.0000   1.0000   1.0000   1.0000
     1.0000   1.0000

          k = 0.4033-0.8109-0.9846 (   618 PWs)   bands (ev):

   -85.2428 -83.9480 -45.9189 -45.8211 -45.6517 -44.6197 -44.5262 -44.4848
    12.2523  12.8145  13.2292  13.8552  14.3087  14.8677  15.4655  15.7374
    16.2347  16.7656

     occupation numbers 
     1.0000   1.0000   1.0000   1.0000   1.0000   1.0000   1.0000   1.0000
     1.0000   1.0000   1.0000   1.0000   1.0000   1.0000   1.0000   1.0000
     1.0000   1.0000

          k = 0.4064-0.8127-0.5744 (   620 PWs)   bands (ev):

   -85.2520 -83.9574 -45.8619 -45.7996 -45.6603 -44.5640 -44.5029 -44.4867
    11.0865  12.5997  13.2751  13.9818  14.4694  14.6081  14.9842  15.4485
    16.0543  16.4975

     occupation numbers 
     1.0000   1.0000   1.0000   1.0000   1.0000   1.0000   1.0000   1.0000
     1.0000   1.0000   1.0000   1.0000   1.0000   1.0000   1.0000   1.0000
     1.0000   1.0000

          k = 0.4094-0.8144-0.1643 (   617 PWs)   bands (ev):

   -85.2541 -83.9598 -45.8320 -45.8076 -45.6604 -44.5395 -44.5075 -44.4892
    11.2434  12.6752  13.3455  13.8146  14.3541  14.4815  14.8930  15.1800
    15.8556  16.1621

     occupation numbers 
     1.0000   1.0000   1.0000   1.0000   1.0000   1.0000   1.0000   1.0000
     1.0000   1.0000   1.0000   1.0000   1.0000   1.0000   1.0000   1.0000
     1.0000   1.0000

          k = 0.4131-0.4312 0.1075 (   620 PWs)   bands (ev):

   -85.2595 -83.9655 -45.8231 -45.7685 -45.6643 -44.5175 -44.4998 -44.4750
    10.8541  11.8697  13.5612  13.8767  14.2300  14.3134  14.9018  15.3331
    15.5355  15.8323

     occupation numbers 
     1.0000   1.0000   1.0000   1.0000   1.0000   1.0000   1.0000   1.0000
     1.0000   1.0000   1.0000   1.0000   1.0000   1.0000   1.0000   1.0000
     1.0000   1.0000

          k = 0.4161-0.4329 0.5177 (   620 PWs)   bands (ev):

   -85.2471 -83.9525 -45.9090 -45.7910 -45.6547 -44.6025 -44.5008 -44.4913
    11.8858  12.7602  13.6048  13.8458  14.3811  14.6190  15.1848  15.4807
    16.0153  16.3889

     occupation numbers 
     1.0000   1.0000   1.0000   1.0000   1.0000   1.0000   1.0000   1.0000
     1.0000   1.0000   1.0000   1.0000   1.0000   1.0000   1.0000   1.0000
     1.0000   1.0000

          k = 0.4192-0.4347 0.9279 (   621 PWs)   bands (ev):

   -85.2383 -83.9432 -45.9690 -45.8089 -45.6453 -44.6680 -44.5199 -44.4846
    12.3726  12.8815  13.3284  14.3111  14.3553  14.8842  15.5728  15.8310
    16.1965  17.9757

     occupation numbers 
     1.0000   1.0000   1.0000   1.0000   1.0000   1.0000   1.0000   1.0000
     1.0000   1.0000   1.0000   1.0000   1.0000   1.0000   1.0000   1.0000
     1.0000   1.0000

          k = 0.4039-0.4259-1.1230 (   618 PWs)   bands (ev):

   -85.2415 -83.9466 -45.9472 -45.8023 -45.6489 -44.6439 -44.5128 -44.4868
    12.3814  12.6398  13.4862  14.1941  14.3556  14.7149  15.5137  15.7781
    16.1624  17.0352

     occupation numbers 
     1.0000   1.0000   1.0000   1.0000   1.0000   1.0000   1.0000   1.0000
     1.0000   1.0000   1.0000   1.0000   1.0000   1.0000   1.0000   1.0000
     1.0000   1.0000

          k = 0.4070-0.4277-0.7128 (   617 PWs)   bands (ev):

   -85.2537 -83.9594 -45.8637 -45.7783 -45.6605 -44.5550 -44.4982 -44.4860
    11.2712  12.6686  13.3433  13.8331  14.3670  14.5095  14.8784  15.2112
    15.8501  16.1560

     occupation numbers 
     1.0000   1.0000   1.0000   1.0000   1.0000   1.0000   1.0000   1.0000
     1.0000   1.0000   1.0000   1.0000   1.0000   1.0000   1.0000   1.0000
     1.0000   1.0000

          k = 0.4100-0.4294-0.3026 (   620 PWs)   bands (ev):

   -85.2629 -83.9690 -45.7977 -45.7645 -45.6661 -44.5127 -44.4815 -44.4714
    10.7990  11.1588  13.7800  13.8478  14.0499  14.4151  15.0190  15.2362
    15.4422  15.5297

     occupation numbers 
     1.0000   1.0000   1.0000   1.0000   1.0000   1.0000   1.0000   1.0000
     1.0000   1.0000   1.0000   1.0000   1.0000   1.0000   1.0000   1.0000
     1.0000   1.0000

     the Fermi energy is    18.9982 ev

!    total energy              =    -685.81071801 Ry
     estimated scf accuracy    <          6.4E-09 Ry
     smearing contrib. (-TS)   =      -0.00000000 Ry
     internal energy E=F+TS    =    -685.81071801 Ry

     The total energy is F=E-TS. E is the sum of the following terms:
     one-electron contribution =    -382.41598866 Ry
     hartree contribution      =     214.89577821 Ry
     xc contribution           =     -70.53795731 Ry
     ewald contribution        =    -448.03972679 Ry
     Hubbard energy            =       0.28717653 Ry

     total magnetization       =     0.00 Bohr mag/cell
     absolute magnetization    =     2.05 Bohr mag/cell

     convergence has been achieved in   5 iterations

 %%%%%%%%%%%%%%%%%%%%%%%%%%%%%%%%%%%%%%%%%%%%%%%%%%%%%%%%%%%%%%%%%%%%%%%%%%%%%%
     Error in routine create_directory (1):
     unable to create directory ./outputs/Ni.save/
 %%%%%%%%%%%%%%%%%%%%%%%%%%%%%%%%%%%%%%%%%%%%%%%%%%%%%%%%%%%%%%%%%%%%%%%%%%%%%%

     stopping ...

 %%%%%%%%%%%%%%%%%%%%%%%%%%%%%%%%%%%%%%%%%%%%%%%%%%%%%%%%%%%%%%%%%%%%%%%%%%%%%%

 %%%%%%%%%%%%%%%%%%%%%%%%%%%%%%%%%%%%%%%%%%%%%%%%%%%%%%%%%%%%%%%%%%%%%%%%%%%%%%
     Error in routine create_directory (1):

 %%%%%%%%%%%%%%%%%%%%%%%%%%%%%%%%%%%%%%%%%%%%%%%%%%%%%%%%%%%%%%%%%%%%%%%%%%%%%%
     Error in routine create_directory (1):
     unable to create directory ./outputs/Ni.save/
 %%%%%%%%%%%%%%%%%%%%%%%%%%%%%%%%%%%%%%%%%%%%%%%%%%%%%%%%%%%%%%%%%%%%%%%%%%%%%%

     stopping ...
     Error in routine create_directory (1):
     unable to create directory ./outputs/Ni.save/
 %%%%%%%%%%%%%%%%%%%%%%%%%%%%%%%%%%%%%%%%%%%%%%%%%%%%%%%%%%%%%%%%%%%%%%%%%%%%%%

     stopping ...
     unable to create directory ./outputs/Ni.save/
 %%%%%%%%%%%%%%%%%%%%%%%%%%%%%%%%%%%%%%%%%%%%%%%%%%%%%%%%%%%%%%%%%%%%%%%%%%%%%%

     stopping ...
